 Gaussian 09, Revision D.01,
 Gaussian 09:  ES64L-G09RevD.01 24-Apr-2013

 -----------------------------
 #p wB97XD/6-31+G Opt=ModRedun
 -----------------------------

 -----
 B.pdb
 -----
 Symbolic Z-matrix:
 Charge =  0 Multiplicity = 1

 SCF Done:  E(RwB97XD) =  -255.096510227     A.U. after   13 cycles
 SCF Done:  E(RwB97XD) =  -255.096671895     A.U. after   11 cycles
 SCF Done:  E(RwB97XD) =  -255.096691775     A.U. after   11 cycles
 SCF Done:  E(RwB97XD) =  -255.096695375     A.U. after   10 cycles
 Optimization completed.
    -- Stationary point found.

                         Standard orientation:
 ---------------------------------------------------------------------
 Center     Atomic      Atomic             Coordinates (Angstroms)
 Number     Number       Type             X           Y           Z
 ---------------------------------------------------------------------
      1          6           0       -1.036714    1.257444    0.084065
      2          6           0       -0.469726    0.056068    0.062367
      3          6           0        0.905295   -0.345916    0.384162
      4          6           0        1.978174    0.122366   -0.263008
      5          1           0       -2.085213    1.388860   -0.151379
      6          1           0       -0.446957    2.128553    0.339222
      7          9           0       -1.289002   -1.066168   -0.208799
      8          1           0        1.005850   -1.106073    1.155323
      9          1           0        1.884955    0.842567   -1.070598
     10          1           0        2.980202   -0.198178    0.001103
 ---------------------------------------------------------------------

 The electronic state is 1-A.
 Alpha  occ. eigenvalues --  -24.82940 -10.40202 -10.33114 -10.32086 -10.30987
 Alpha  occ. eigenvalues --   -1.30842  -0.93069  -0.86015  -0.74163  -0.65310
 Alpha  occ. eigenvalues --   -0.61153  -0.57612  -0.56074  -0.52697  -0.50666
 Alpha  occ. eigenvalues --   -0.48498  -0.45301  -0.39271  -0.34291
 Alpha virt. eigenvalues --    0.02902   0.07053   0.07836   0.08543   0.09683
 Alpha virt. eigenvalues --    0.11206   0.12055   0.13304   0.13975   0.14811
 Alpha virt. eigenvalues --    0.16595   0.17445   0.18310   0.18909   0.19714

 Mulliken charges:
               1
     1  C   -0.440673
     2  C    0.092684
     3  C   -0.004524
     4  C   -0.426308
     5  H    0.217257
     6  H    0.211526
     7  F   -0.284748
     8  H    0.229608
     9  H    0.206295
    10  H    0.198882
 Sum of Mulliken charges =   0.00000

 Dipole moment (field-independent basis, Debye):
    X=              1.7085    Y=              1.6300    Z=              0.4397  Tot=              2.4020
 Quadrupole moment (field-independent basis, Debye-Ang):
   XX=            -27.8323   YY=            -29.8935   ZZ=            -30.6520
   XY=             -3.0353   XZ=             -0.2100   YZ=             -1.8982

 Normal termination of Gaussian 09 at Wed May 12 11:56:10 2021.
