 Gaussian 09, Revision D.01,
 Gaussian 09:  ES64L-G09RevD.01 24-Apr-2013

 -----------------------------
 #p wB97XD/6-31+G Opt=ModRedun
 -----------------------------

 -----
 O.pdb
 -----
 Symbolic Z-matrix:
 Charge =  0 Multiplicity = 1

 SCF Done:  E(RwB97XD) =  -268.205320112     A.U. after   14 cycles

 The electronic state is 1-A.
 Alpha  occ. eigenvalues --  -19.31852 -19.27594 -10.45242 -10.36980 -10.32128
 Alpha  occ. eigenvalues --   -1.21687  -1.14002  -0.87212  -0.83710  -0.67114
 Alpha  occ. eigenvalues --   -0.60454  -0.59011  -0.57573  -0.53784  -0.51801
 Alpha  occ. eigenvalues --   -0.50809  -0.47706  -0.42869  -0.38651  -0.36375
 Alpha virt. eigenvalues --    0.05096   0.06365   0.07671   0.09155   0.09513
 Alpha virt. eigenvalues --    0.11987   0.12554   0.12906   0.14388   0.14829
 Alpha virt. eigenvalues --    0.16703   0.17107   0.19351   0.21130   0.23484

 Mulliken charges:
               1
     1  C   -0.695502
     2  C    0.419808
     3  H    0.231362
     4  H    0.255302
     5  H    0.247436
     6  O   -0.310822
     7  O   -0.399917
     8  C   -0.395668
     9  H    0.199894
    10  H    0.234442
    11  H    0.213664
 Sum of Mulliken charges =   0.00000

 Dipole moment (field-independent basis, Debye):
    X=              3.0287    Y=              4.1299    Z=              0.5585  Tot=              5.1518
 Quadrupole moment (field-independent basis, Debye-Ang):
   XX=            -30.0463   YY=            -33.0169   ZZ=            -30.0141
   XY=             -3.2858   XZ=              1.5974   YZ=             -0.4221

 Optimization completed.
    -- Stationary point found.

                         Standard orientation:
 ---------------------------------------------------------------------
 Center     Atomic      Atomic             Coordinates (Angstroms)
 Number     Number       Type             X           Y           Z
 ---------------------------------------------------------------------
      1          6           0       -0.782510    1.324685   -0.038170
      2          6           0       -0.597164   -0.170948   -0.013679
      3          1           0       -0.244626    1.812508    0.781858
      4          1           0       -1.844444    1.546446    0.061290
      5          1           0       -0.407855    1.736713   -0.980423
      6          8           0        0.662686   -0.644373   -0.318618
      7          8           0       -1.507117   -0.972184    0.148894
      8          6           0        1.847117    0.052079    0.164215
      9          1           0        1.934935    1.048269   -0.279939
     10          1           0        2.683121   -0.566178   -0.154466
     11          1           0        1.829662    0.119805    1.255279
 ---------------------------------------------------------------------

 Normal termination of Gaussian 09 at Wed May 26 09:01:20 2021.
