 Gaussian 09, Revision D.01,
 Gaussian 09:  ES64L-G09RevD.01 24-Apr-2013

 -----------------------------
 #p wB97XD/6-31+G Opt=ModRedun
 -----------------------------

 -----
 L.pdb
 -----
 Symbolic Z-matrix:
 Charge =  0 Multiplicity = 1

 SCF Done:  E(RwB97XD) =  -191.793126539     A.U. after   13 cycles
 SCF Done:  E(RwB97XD) =  -191.793251116     A.U. after   12 cycles
 SCF Done:  E(RwB97XD) =  -191.793255680     A.U. after   11 cycles
 SCF Done:  E(RwB97XD) =  -191.793255752     A.U. after   10 cycles
 SCF Done:  E(RwB97XD) =  -191.793256102     A.U. after    9 cycles
 Optimization completed.
    -- Stationary point found.

                         Standard orientation:
 ---------------------------------------------------------------------
 Center     Atomic      Atomic             Coordinates (Angstroms)
 Number     Number       Type             X           Y           Z
 ---------------------------------------------------------------------
      1          6           0       -1.471319   -0.472177    0.000076
      2          6           0       -0.667271    0.600502   -0.000039
      3          6           0        0.804364    0.476725   -0.000082
      4          8           0        1.413752   -0.601178   -0.000036
      5          1           0        1.370492    1.420294    0.000318
      6          1           0       -2.551646   -0.375833    0.000146
      7          1           0       -1.052648   -1.474833    0.000087
      8          1           0       -1.070861    1.609498    0.000008
 ---------------------------------------------------------------------

 The electronic state is 1-A.
 Alpha  occ. eigenvalues --  -19.28621 -10.40395 -10.33215 -10.32803  -1.16897
 Alpha  occ. eigenvalues --   -0.90958  -0.76980  -0.65049  -0.61550  -0.54483
 Alpha  occ. eigenvalues --   -0.52270  -0.49499  -0.47651  -0.37615  -0.35258
 Alpha virt. eigenvalues --   -0.01691   0.07031   0.08193   0.09877   0.10436
 Alpha virt. eigenvalues --    0.12003   0.12606   0.13042   0.15097   0.15964
 Alpha virt. eigenvalues --    0.17593   0.18222   0.20247   0.22178   0.25891

 Mulliken charges:
               1
     1  C   -0.437452
     2  C   -0.025630
     3  C    0.073055
     4  O   -0.442614
     5  H    0.178023
     6  H    0.205842
     7  H    0.236554
     8  H    0.212222
 Sum of Mulliken charges =   0.00000

 Dipole moment (field-independent basis, Debye):
    X=             -2.5333    Y=              1.9899    Z=              0.0003  Tot=              3.2214
 Quadrupole moment (field-independent basis, Debye-Ang):
   XX=            -24.7840   YY=            -22.4588   ZZ=            -25.3332
   XY=              3.7452   XZ=             -0.0001   YZ=              0.0000

 Normal termination of Gaussian 09 at Wed May 12 11:58:34 2021.
