 Gaussian 09, Revision D.01,
 Gaussian 09:  ES64L-G09RevD.01 24-Apr-2013

 -----------------------------
 #p wB97XD/6-31+G Opt=ModRedun
 -----------------------------

 -----
 N.pdb
 -----
 Symbolic Z-matrix:
 Charge =  0 Multiplicity = 1

 SCF Done:  E(RwB97XD) =  -529.924597316     A.U. after   15 cycles

 The electronic state is 1-A.
 Alpha  occ. eigenvalues --  -24.87932 -24.87837 -24.87794 -19.30276 -10.58503
 Alpha  occ. eigenvalues --  -10.43891 -10.36501 -10.32765  -1.42773  -1.34389
 Alpha  occ. eigenvalues --   -1.34061  -1.19563  -0.94948  -0.87953  -0.79148
 Alpha  occ. eigenvalues --   -0.70427  -0.69231  -0.68463  -0.63313  -0.59517
 Alpha  occ. eigenvalues --   -0.59048  -0.56135  -0.56009  -0.55175  -0.53832
 Alpha  occ. eigenvalues --   -0.52883  -0.51745  -0.51291  -0.50574  -0.49109
 Alpha  occ. eigenvalues --   -0.46486  -0.36847
 Alpha virt. eigenvalues --    0.01593   0.05252   0.07884   0.09137   0.09731
 Alpha virt. eigenvalues --    0.10248   0.11815   0.12073   0.12367   0.13180
 Alpha virt. eigenvalues --    0.14449   0.15128   0.16226   0.17209   0.18111

 Mulliken charges:
               1
     1  C   -0.826012
     2  C    0.623335
     3  H    0.248950
     4  H    0.255776
     5  H    0.227298
     6  C   -0.629373
     7  O   -0.384568
     8  C    0.499959
     9  H    0.274854
    10  H    0.292631
    11  F   -0.189187
    12  F   -0.218597
    13  F   -0.175065
 Sum of Mulliken charges =   0.00000

 Dipole moment (field-independent basis, Debye):
    X=              3.1947    Y=             -4.2636    Z=             -0.7252  Tot=              5.3768
 Quadrupole moment (field-independent basis, Debye-Ang):
   XX=            -45.5746   YY=            -49.1044   ZZ=            -45.2493
   XY=             -5.5514   XZ=              0.0282   YZ=              0.4490

 Optimization completed.
    -- Stationary point found.

                         Standard orientation:
 ---------------------------------------------------------------------
 Center     Atomic      Atomic             Coordinates (Angstroms)
 Number     Number       Type             X           Y           Z
 ---------------------------------------------------------------------
      1          6           0        2.764486   -0.664842    0.064801
      2          6           0        1.479329    0.103857   -0.083591
      3          1           0        2.782589   -1.163777    1.041751
      4          1           0        3.612172    0.018343    0.002070
      5          1           0        2.855020   -1.441244   -0.702782
      6          6           0        0.237535   -0.749602   -0.316634
      7          8           0        1.429760    1.332435   -0.024663
      8          6           0       -1.074323   -0.086557   -0.000338
      9          1           0        0.299713   -1.663553    0.282020
     10          1           0        0.215591   -1.056659   -1.369042
     11          9           0       -1.128814    0.390037    1.301561
     12          9           0       -2.115453   -1.014474   -0.124753
     13          9           0       -1.382992    0.961135   -0.848157
 ---------------------------------------------------------------------

 Normal termination of Gaussian 09 at Wed May 26 09:20:57 2021.
