 Gaussian 09, Revision D.01,
 Gaussian 09:  ES64L-G09RevD.01 24-Apr-2013

 -----------------------------
 #p wB97XD/6-31+G Opt=ModRedun
 -----------------------------

 -----
 N.pdb
 -----
 Symbolic Z-matrix:
 Charge =  0 Multiplicity = 1

 SCF Done:  E(RwB97XD) =  -529.927875706     A.U. after   15 cycles

 The electronic state is 1-A.
 Alpha  occ. eigenvalues --  -24.89231 -24.89229 -24.89101 -19.30333 -10.59573
 Alpha  occ. eigenvalues --  -10.43935 -10.36388 -10.32082  -1.44029  -1.35544
 Alpha  occ. eigenvalues --   -1.35480  -1.19500  -0.95308  -0.87265  -0.80188
 Alpha  occ. eigenvalues --   -0.71093  -0.70397  -0.69268  -0.64277  -0.59744
 Alpha  occ. eigenvalues --   -0.58493  -0.57685  -0.56973  -0.55318  -0.54262
 Alpha  occ. eigenvalues --   -0.53755  -0.52711  -0.52077  -0.50494  -0.49624
 Alpha  occ. eigenvalues --   -0.46252  -0.36995
 Alpha virt. eigenvalues --    0.01289   0.06206   0.08068   0.09333   0.10119
 Alpha virt. eigenvalues --    0.10711   0.11169   0.11924   0.12757   0.13444
 Alpha virt. eigenvalues --    0.13645   0.15877   0.16768   0.17161   0.17748

 Mulliken charges:
               1
     1  C   -0.720446
     2  C    0.439433
     3  H    0.248291
     4  H    0.250627
     5  H    0.260619
     6  C   -0.516087
     7  O   -0.403009
     8  C    0.441982
     9  H    0.295588
    10  H    0.290658
    11  F   -0.190022
    12  F   -0.204704
    13  F   -0.192929
 Sum of Mulliken charges =   0.00000

 Dipole moment (field-independent basis, Debye):
    X=              0.2017    Y=              1.0216    Z=             -1.6337  Tot=              1.9373
 Quadrupole moment (field-independent basis, Debye-Ang):
   XX=            -56.7335   YY=            -45.9871   ZZ=            -44.9425
   XY=              6.5624   XZ=             -1.2560   YZ=              1.4358

 Optimization completed.
    -- Stationary point found.

                         Standard orientation:
 ---------------------------------------------------------------------
 Center     Atomic      Atomic             Coordinates (Angstroms)
 Number     Number       Type             X           Y           Z
 ---------------------------------------------------------------------
      1          6           0        1.740580    1.257937   -0.033838
      2          6           0        1.531307   -0.226968   -0.096552
      3          1           0        1.424037    1.737663   -0.965602
      4          1           0        2.795474    1.462507    0.151129
      5          1           0        1.142730    1.697173    0.772415
      6          6           0        0.173609   -0.783194   -0.528161
      7          8           0        2.437796   -1.031978    0.134786
      8          6           0       -1.036192   -0.066269   -0.004515
      9          1           0        0.121215   -1.825385   -0.206112
     10          1           0        0.119170   -0.766434   -1.623058
     11          9           0       -0.997035    0.101687    1.377192
     12          9           0       -2.200771   -0.767471   -0.293434
     13          9           0       -1.197841    1.205924   -0.553609
 ---------------------------------------------------------------------

 Normal termination of Gaussian 09 at Wed May 26 09:20:56 2021.
