 Gaussian 09, Revision D.01,
 Gaussian 09:  ES64L-G09RevD.01 24-Apr-2013

 -----------------------------
 #p wB97XD/6-31+G Opt=ModRedun
 -----------------------------

 -----
 L.pdb
 -----
 Symbolic Z-matrix:
 Charge =  0 Multiplicity = 1

 SCF Done:  E(RwB97XD) =  -191.782471680     A.U. after   14 cycles
 SCF Done:  E(RwB97XD) =  -191.782565533     A.U. after   12 cycles
 SCF Done:  E(RwB97XD) =  -191.782556014     A.U. after   12 cycles
 SCF Done:  E(RwB97XD) =  -191.782571280     A.U. after   12 cycles
 Optimization completed.
    -- Stationary point found.

                         Standard orientation:
 ---------------------------------------------------------------------
 Center     Atomic      Atomic             Coordinates (Angstroms)
 Number     Number       Type             X           Y           Z
 ---------------------------------------------------------------------
      1          6           0       -1.664644   -0.316945   -0.083267
      2          6           0       -0.614087    0.502100    0.014531
      3          6           0        0.743825    0.040189    0.420848
      4          8           0        1.651313   -0.180898   -0.384586
      5          1           0        0.918743   -0.124305    1.496375
      6          1           0       -2.627293    0.041191   -0.431993
      7          1           0       -1.598712   -1.371267    0.171476
      8          1           0       -0.693802    1.549504   -0.271847
 ---------------------------------------------------------------------

 The electronic state is 1-A.
 Alpha  occ. eigenvalues --  -19.29752 -10.41318 -10.33148 -10.32511  -1.18052
 Alpha  occ. eigenvalues --   -0.91077  -0.76155  -0.67119  -0.59765  -0.56613
 Alpha  occ. eigenvalues --   -0.53840  -0.49014  -0.46926  -0.37799  -0.35529
 Alpha virt. eigenvalues --    0.01057   0.05120   0.07578   0.08596   0.09102
 Alpha virt. eigenvalues --    0.11025   0.12471   0.13239   0.14715   0.16678
 Alpha virt. eigenvalues --    0.17109   0.17782   0.19433   0.22506   0.27694

 Mulliken charges:
               1
     1  C   -0.344863
     2  C   -0.132367
     3  C    0.013795
     4  O   -0.366899
     5  H    0.186975
     6  H    0.204195
     7  H    0.203213
     8  H    0.235952
 Sum of Mulliken charges =   0.00000

 Dipole moment (field-independent basis, Debye):
    X=             -2.6452    Y=              0.5447    Z=              1.6060  Tot=              3.1422
 Quadrupole moment (field-independent basis, Debye-Ang):
   XX=            -27.2245   YY=            -21.9508   ZZ=            -25.2075
   XY=              1.2188   XZ=              3.4425   YZ=             -0.9712

 Normal termination of Gaussian 09 at Wed May 12 11:58:34 2021.
