 Gaussian 09, Revision D.01,
 Gaussian 09:  ES64L-G09RevD.01 24-Apr-2013

 -----------------------------
 #p wB97XD/6-31+G Opt=ModRedun
 -----------------------------

 -----
 O.pdb
 -----
 Symbolic Z-matrix:
 Charge =  0 Multiplicity = 1

 SCF Done:  E(RwB97XD) =  -268.207904464     A.U. after   14 cycles

 The electronic state is 1-A.
 Alpha  occ. eigenvalues --  -19.32321 -19.27128 -10.45175 -10.37076 -10.32260
 Alpha  occ. eigenvalues --   -1.21800  -1.13948  -0.87239  -0.84072  -0.67278
 Alpha  occ. eigenvalues --   -0.60704  -0.59306  -0.57567  -0.53718  -0.51674
 Alpha  occ. eigenvalues --   -0.50633  -0.47889  -0.43267  -0.38531  -0.36252
 Alpha virt. eigenvalues --    0.05671   0.06357   0.07656   0.08915   0.09488
 Alpha virt. eigenvalues --    0.12014   0.12615   0.12975   0.14190   0.14905
 Alpha virt. eigenvalues --    0.16854   0.17062   0.19443   0.20815   0.22643

 Mulliken charges:
               1
     1  C   -0.706092
     2  C    0.434473
     3  H    0.229241
     4  H    0.257484
     5  H    0.242766
     6  O   -0.310546
     7  O   -0.410456
     8  C   -0.381876
     9  H    0.200842
    10  H    0.234322
    11  H    0.209843
 Sum of Mulliken charges =   0.00000

 Dipole moment (field-independent basis, Debye):
    X=              3.3976    Y=              4.1845    Z=              0.2536  Tot=              5.3961
 Quadrupole moment (field-independent basis, Debye-Ang):
   XX=            -30.7130   YY=            -33.0032   ZZ=            -29.6828
   XY=             -3.2555   XZ=              0.8022   YZ=             -0.2721

 Optimization completed.
    -- Stationary point found.

                         Standard orientation:
 ---------------------------------------------------------------------
 Center     Atomic      Atomic             Coordinates (Angstroms)
 Number     Number       Type             X           Y           Z
 ---------------------------------------------------------------------
      1          6           0       -0.693653    1.344751   -0.024820
      2          6           0       -0.609726   -0.160212   -0.003213
      3          1           0       -0.134104    1.794806    0.801468
      4          1           0       -1.740961    1.631537    0.060671
      5          1           0       -0.287780    1.740168   -0.961880
      6          8           0        0.633162   -0.730351   -0.155589
      7          8           0       -1.584104   -0.897062    0.076525
      8          6           0        1.850934    0.028976    0.082021
      9          1           0        1.938428    0.870078   -0.611364
     10          1           0        2.656419   -0.679611   -0.096687
     11          1           0        1.890201    0.381241    1.116375
 ---------------------------------------------------------------------

 Normal termination of Gaussian 09 at Wed May 26 09:01:17 2021.
