 Gaussian 09, Revision D.01,
 Gaussian 09:  ES64L-G09RevD.01 24-Apr-2013

 -----------------------------
 #p wB97XD/6-31+G Opt=ModRedun
 -----------------------------

 -----
 B.pdb
 -----
 Symbolic Z-matrix:
 Charge =  0 Multiplicity = 1

 SCF Done:  E(RwB97XD) =  -255.101850256     A.U. after   13 cycles
 SCF Done:  E(RwB97XD) =  -255.102006432     A.U. after   10 cycles
 SCF Done:  E(RwB97XD) =  -255.102020355     A.U. after   10 cycles
 SCF Done:  E(RwB97XD) =  -255.102022484     A.U. after    9 cycles
 Optimization completed.
    -- Stationary point found.

                         Standard orientation:
 ---------------------------------------------------------------------
 Center     Atomic      Atomic             Coordinates (Angstroms)
 Number     Number       Type             X           Y           Z
 ---------------------------------------------------------------------
      1          6           0       -1.716850   -0.665486    0.000082
      2          6           0       -0.522206   -0.076592   -0.000014
      3          6           0        0.796164   -0.700481   -0.000072
      4          6           0        1.956801   -0.033018    0.000041
      5          1           0       -2.630449   -0.085850    0.000121
      6          1           0       -1.790550   -1.745927    0.000099
      7          9           0       -0.482039    1.331595   -0.000055
      8          1           0        0.781358   -1.787402   -0.000167
      9          1           0        1.991871    1.050903    0.000173
     10          1           0        2.902670   -0.562616    0.000042
 ---------------------------------------------------------------------

 The electronic state is 1-A.
 Alpha  occ. eigenvalues --  -24.83317 -10.40357 -10.32889 -10.31353 -10.31192
 Alpha  occ. eigenvalues --   -1.31422  -0.92840  -0.86536  -0.73190  -0.66627
 Alpha  occ. eigenvalues --   -0.60370  -0.58731  -0.54344  -0.53617  -0.50347
 Alpha  occ. eigenvalues --   -0.48158  -0.45807  -0.41252  -0.32779
 Alpha virt. eigenvalues --    0.01748   0.06773   0.07944   0.09893   0.10395
 Alpha virt. eigenvalues --    0.11382   0.12090   0.12868   0.14519   0.15291
 Alpha virt. eigenvalues --    0.16186   0.16608   0.19066   0.20026   0.20061

 Mulliken charges:
               1
     1  C   -0.357647
     2  C    0.097598
     3  C    0.007369
     4  C   -0.488026
     5  H    0.220902
     6  H    0.207170
     7  F   -0.324712
     8  H    0.215742
     9  H    0.224282
    10  H    0.197322
 Sum of Mulliken charges =   0.00000

 Dipole moment (field-independent basis, Debye):
    X=              0.3312    Y=             -2.0711    Z=              0.0001  Tot=              2.0974
 Quadrupole moment (field-independent basis, Debye-Ang):
   XX=            -24.8913   YY=            -29.3905   ZZ=            -32.8562
   XY=              1.2953   XZ=              0.0000   YZ=              0.0004

 Normal termination of Gaussian 09 at Wed May 12 11:56:08 2021.
