 Gaussian 09, Revision D.01,
 Gaussian 09:  ES64L-G09RevD.01 24-Apr-2013

 -----------------------------
 #p wB97XD/6-31+G Opt=ModRedun
 -----------------------------

 -----
 N.pdb
 -----
 Symbolic Z-matrix:
 Charge =  0 Multiplicity = 1

 SCF Done:  E(RwB97XD) =  -529.927197786     A.U. after   15 cycles

 The electronic state is 1-A.
 Alpha  occ. eigenvalues --  -24.89131 -24.89129 -24.89059 -19.30459 -10.59578
 Alpha  occ. eigenvalues --  -10.43888 -10.36308 -10.32167  -1.43963  -1.35497
 Alpha  occ. eigenvalues --   -1.35387  -1.19563  -0.95295  -0.87321  -0.80039
 Alpha  occ. eigenvalues --   -0.71062  -0.70307  -0.69177  -0.64250  -0.59619
 Alpha  occ. eigenvalues --   -0.58491  -0.57583  -0.56865  -0.55485  -0.54266
 Alpha  occ. eigenvalues --   -0.53714  -0.52633  -0.51668  -0.50655  -0.49702
 Alpha  occ. eigenvalues --   -0.46410  -0.37010
 Alpha virt. eigenvalues --    0.01042   0.05976   0.07931   0.09193   0.10179
 Alpha virt. eigenvalues --    0.10675   0.11185   0.12239   0.12602   0.13234
 Alpha virt. eigenvalues --    0.14091   0.15843   0.16602   0.16854   0.17501

 Mulliken charges:
               1
     1  C   -0.684351
     2  C    0.405402
     3  H    0.262008
     4  H    0.250534
     5  H    0.237885
     6  C   -0.531362
     7  O   -0.396025
     8  C    0.451859
     9  H    0.282490
    10  H    0.294902
    11  F   -0.192747
    12  F   -0.201341
    13  F   -0.179254
 Sum of Mulliken charges =   0.00000

 Dipole moment (field-independent basis, Debye):
    X=             -0.5314    Y=              1.5826    Z=             -2.1481  Tot=              2.7205
 Quadrupole moment (field-independent basis, Debye-Ang):
   XX=            -54.6484   YY=            -47.3052   ZZ=            -44.4185
   XY=             -6.8495   XZ=              1.4173   YZ=              1.6875

 Optimization completed.
    -- Stationary point found.

                         Standard orientation:
 ---------------------------------------------------------------------
 Center     Atomic      Atomic             Coordinates (Angstroms)
 Number     Number       Type             X           Y           Z
 ---------------------------------------------------------------------
      1          6           0       -1.870857    1.224217   -0.014696
      2          6           0       -1.506466   -0.226377   -0.146817
      3          1           0       -1.308234    1.680786    0.808083
      4          1           0       -2.937098    1.313424    0.196272
      5          1           0       -1.617551    1.779935   -0.922726
      6          6           0       -0.149972   -0.587832   -0.754942
      7          8           0       -2.277902   -1.135614    0.168413
      8          6           0        1.034869   -0.042668   -0.008726
      9          1           0       -0.092813   -0.216698   -1.783543
     10          1           0       -0.067755   -1.676513   -0.768932
     11          9           0        1.156331    1.343088   -0.128964
     12          9           0        2.224312   -0.582763   -0.482271
     13          9           0        0.975049   -0.315886    1.352860
 ---------------------------------------------------------------------

 Normal termination of Gaussian 09 at Wed May 26 09:20:56 2021.
