 Gaussian 09, Revision D.01,
 Gaussian 09:  ES64L-G09RevD.01 24-Apr-2013

 -----------------------------
 #p wB97XD/6-31+G Opt=ModRedun
 -----------------------------

 -----
 L.pdb
 -----
 Symbolic Z-matrix:
 Charge =  0 Multiplicity = 1

 SCF Done:  E(RwB97XD) =  -191.782875080     A.U. after   14 cycles
 SCF Done:  E(RwB97XD) =  -191.782976922     A.U. after   12 cycles
 SCF Done:  E(RwB97XD) =  -191.782955201     A.U. after   12 cycles
 SCF Done:  E(RwB97XD) =  -191.782983390     A.U. after   12 cycles
 Optimization completed.
    -- Stationary point found.

                         Standard orientation:
 ---------------------------------------------------------------------
 Center     Atomic      Atomic             Coordinates (Angstroms)
 Number     Number       Type             X           Y           Z
 ---------------------------------------------------------------------
      1          6           0        1.619544   -0.377189    0.068983
      2          6           0        0.633293    0.487092   -0.184338
      3          6           0       -0.763586    0.311706    0.296291
      4          8           0       -1.598417   -0.423745   -0.236149
      5          1           0       -1.057240    0.928185    1.162289
      6          1           0        2.634792   -0.188808   -0.263256
      7          1           0        1.442743   -1.305339    0.604843
      8          1           0        0.831533    1.426267   -0.700299
 ---------------------------------------------------------------------

 The electronic state is 1-A.
 Alpha  occ. eigenvalues --  -19.29670 -10.41246 -10.33163 -10.32486  -1.17933
 Alpha  occ. eigenvalues --   -0.91054  -0.76600  -0.66314  -0.60582  -0.55867
 Alpha  occ. eigenvalues --   -0.54096  -0.48888  -0.46950  -0.37798  -0.35451
 Alpha virt. eigenvalues --    0.01590   0.04469   0.07578   0.08435   0.09402
 Alpha virt. eigenvalues --    0.11039   0.12453   0.13411   0.14686   0.16637
 Alpha virt. eigenvalues --    0.17191   0.17773   0.19424   0.22437   0.27408

 Mulliken charges:
               1
     1  C   -0.389765
     2  C   -0.096502
     3  C    0.040798
     4  O   -0.380204
     5  H    0.184241
     6  H    0.202390
     7  H    0.208739
     8  H    0.230303
 Sum of Mulliken charges =   0.00000

 Dipole moment (field-independent basis, Debye):
    X=              2.5418    Y=              1.6520    Z=              1.1015  Tot=              3.2254
 Quadrupole moment (field-independent basis, Debye-Ang):
   XX=            -26.5976   YY=            -22.8175   ZZ=            -24.5408
   XY=             -2.9136   XZ=             -2.1401   YZ=             -1.6433

 Normal termination of Gaussian 09 at Wed May 12 11:58:33 2021.
