 Gaussian 09, Revision D.01,
 Gaussian 09:  ES64L-G09RevD.01 24-Apr-2013

 -----------------------------
 #p wB97XD/6-31+G Opt=ModRedun
 -----------------------------

 -----
 N.pdb
 -----
 Symbolic Z-matrix:
 Charge =  0 Multiplicity = 1

 SCF Done:  E(RwB97XD) =  -529.923988446     A.U. after   15 cycles

 The electronic state is 1-A.
 Alpha  occ. eigenvalues --  -24.88158 -24.88040 -24.87938 -19.30290 -10.58716
 Alpha  occ. eigenvalues --  -10.43890 -10.36416 -10.32710  -1.42961  -1.34531
 Alpha  occ. eigenvalues --   -1.34293  -1.19562  -0.94921  -0.87907  -0.79241
 Alpha  occ. eigenvalues --   -0.70484  -0.69366  -0.68564  -0.63548  -0.59321
 Alpha  occ. eigenvalues --   -0.58882  -0.56287  -0.56222  -0.55479  -0.53699
 Alpha  occ. eigenvalues --   -0.53065  -0.51738  -0.51483  -0.50600  -0.49262
 Alpha  occ. eigenvalues --   -0.46426  -0.36818
 Alpha virt. eigenvalues --    0.01340   0.05307   0.07879   0.09185   0.09787
 Alpha virt. eigenvalues --    0.10202   0.11583   0.12184   0.12275   0.12995
 Alpha virt. eigenvalues --    0.14690   0.15388   0.16324   0.17207   0.18053

 Mulliken charges:
               1
     1  C   -0.789567
     2  C    0.547991
     3  H    0.250081
     4  H    0.254023
     5  H    0.231259
     6  C   -0.541679
     7  O   -0.389088
     8  C    0.456226
     9  H    0.266756
    10  H    0.294781
    11  F   -0.193113
    12  F   -0.214975
    13  F   -0.172695
 Sum of Mulliken charges =   0.00000

 Dipole moment (field-independent basis, Debye):
    X=              2.8723    Y=             -3.9752    Z=             -1.4476  Tot=              5.1135
 Quadrupole moment (field-independent basis, Debye-Ang):
   XX=            -46.2460   YY=            -49.6103   ZZ=            -44.6587
   XY=             -5.8079   XZ=             -0.1624   YZ=              0.5332

 Optimization completed.
    -- Stationary point found.

                         Standard orientation:
 ---------------------------------------------------------------------
 Center     Atomic      Atomic             Coordinates (Angstroms)
 Number     Number       Type             X           Y           Z
 ---------------------------------------------------------------------
      1          6           0        2.672215   -0.738452    0.112799
      2          6           0        1.475106    0.131619   -0.148346
      3          1           0        2.492948   -1.347223    1.007927
      4          1           0        3.555566   -0.119482    0.271937
      5          1           0        2.846910   -1.427669   -0.721404
      6          6           0        0.210749   -0.597108   -0.604940
      7          8           0        1.500499    1.356043   -0.021493
      8          6           0       -1.067192   -0.079411   -0.003603
      9          1           0        0.277026   -1.660902   -0.364242
     10          1           0        0.129748   -0.508489   -1.694254
     11          9           0       -1.012763   -0.053606    1.386809
     12          9           0       -2.131935   -0.920400   -0.342021
     13          9           0       -1.416574    1.186843   -0.429619
 ---------------------------------------------------------------------

 Normal termination of Gaussian 09 at Wed May 26 09:20:55 2021.
