 Gaussian 09, Revision D.01,
 Gaussian 09:  ES64L-G09RevD.01 24-Apr-2013

 -----------------------------
 #p wB97XD/6-31+G Opt=ModRedun
 -----------------------------

 -----
 N.pdb
 -----
 Symbolic Z-matrix:
 Charge =  0 Multiplicity = 1

 SCF Done:  E(RwB97XD) =  -529.924229868     A.U. after   15 cycles

 The electronic state is 1-A.
 Alpha  occ. eigenvalues --  -24.88410 -24.88344 -24.88222 -19.30368 -10.58987
 Alpha  occ. eigenvalues --  -10.43867 -10.36322 -10.32591  -1.43237  -1.34746
 Alpha  occ. eigenvalues --   -1.34639  -1.19584  -0.94959  -0.87787  -0.79378
 Alpha  occ. eigenvalues --   -0.70619  -0.69585  -0.68693  -0.63800  -0.59319
 Alpha  occ. eigenvalues --   -0.58575  -0.56555  -0.56471  -0.55682  -0.53665
 Alpha  occ. eigenvalues --   -0.53283  -0.51783  -0.51679  -0.50704  -0.49444
 Alpha  occ. eigenvalues --   -0.46399  -0.36841
 Alpha virt. eigenvalues --    0.01057   0.05283   0.07848   0.09332   0.09766
 Alpha virt. eigenvalues --    0.10245   0.11448   0.12290   0.12397   0.12870
 Alpha virt. eigenvalues --    0.14914   0.15621   0.16283   0.16914   0.17736

 Mulliken charges:
               1
     1  C   -0.750741
     2  C    0.452035
     3  H    0.235541
     4  H    0.252503
     5  H    0.249100
     6  C   -0.499661
     7  O   -0.381891
     8  C    0.462014
     9  H    0.293238
    10  H    0.263376
    11  F   -0.174469
    12  F   -0.209173
    13  F   -0.191869
 Sum of Mulliken charges =   0.00000

 Dipole moment (field-independent basis, Debye):
    X=             -2.3778    Y=             -3.5111    Z=             -2.0366  Tot=              4.7042
 Quadrupole moment (field-independent basis, Debye-Ang):
   XX=            -47.3913   YY=            -49.9452   ZZ=            -44.1249
   XY=              6.2024   XZ=              0.4932   YZ=              0.1413

 Optimization completed.
    -- Stationary point found.

                         Standard orientation:
 ---------------------------------------------------------------------
 Center     Atomic      Atomic             Coordinates (Angstroms)
 Number     Number       Type             X           Y           Z
 ---------------------------------------------------------------------
      1          6           0       -2.518473   -0.855620    0.125120
      2          6           0       -1.466643    0.169217   -0.186456
      3          1           0       -2.790448   -1.411331   -0.780470
      4          1           0       -3.404087   -0.370007    0.535737
      5          1           0       -2.129054   -1.581392    0.849531
      6          6           0       -0.174667   -0.350661   -0.825680
      7          8           0       -1.620722    1.373044    0.023121
      8          6           0        1.056042   -0.063332   -0.009105
      9          1           0       -0.046724    0.128254   -1.801252
     10          1           0       -0.220283   -1.431379   -0.974215
     11          9           0        1.351361    1.279766    0.109204
     12          9           0        2.175162   -0.674127   -0.575867
     13          9           0        0.937790   -0.574098    1.284710
 ---------------------------------------------------------------------

 Normal termination of Gaussian 09 at Wed May 26 09:20:56 2021.
