 Gaussian 09, Revision D.01,
 Gaussian 09:  ES64L-G09RevD.01 24-Apr-2013

 -----------------------------
 #p wB97XD/6-31+G Opt=ModRedun
 -----------------------------

 -----
 L.pdb
 -----
 Symbolic Z-matrix:
 Charge =  0 Multiplicity = 1

 SCF Done:  E(RwB97XD) =  -191.794367966     A.U. after   13 cycles
 SCF Done:  E(RwB97XD) =  -191.794489780     A.U. after   12 cycles
 SCF Done:  E(RwB97XD) =  -191.794482213     A.U. after   12 cycles
 SCF Done:  E(RwB97XD) =  -191.794498843     A.U. after   11 cycles
 SCF Done:  E(RwB97XD) =  -191.794499303     A.U. after   10 cycles
 Optimization completed.
    -- Stationary point found.

                         Standard orientation:
 ---------------------------------------------------------------------
 Center     Atomic      Atomic             Coordinates (Angstroms)
 Number     Number       Type             X           Y           Z
 ---------------------------------------------------------------------
      1          6           0       -1.759664    0.140974   -0.071278
      2          6           0       -0.565499   -0.442554    0.097838
      3          6           0        0.672558    0.352312    0.098504
      4          8           0        1.793561   -0.126221   -0.107252
      5          1           0        0.551939    1.439371    0.245492
      6          1           0       -2.676048   -0.434380   -0.141872
      7          1           0       -1.856568    1.221989   -0.147733
      8          1           0       -0.452177   -1.521607    0.151745
 ---------------------------------------------------------------------

 The electronic state is 1-A.
 Alpha  occ. eigenvalues --  -19.28895 -10.40657 -10.33909 -10.33291  -1.17226
 Alpha  occ. eigenvalues --   -0.92046  -0.75970  -0.68235  -0.58464  -0.57581
 Alpha  occ. eigenvalues --   -0.51689  -0.49654  -0.48676  -0.38192  -0.35375
 Alpha virt. eigenvalues --   -0.01143   0.06958   0.08126   0.08704   0.09222
 Alpha virt. eigenvalues --    0.11825   0.12644   0.12742   0.14822   0.15596
 Alpha virt. eigenvalues --    0.17659   0.18523   0.20187   0.22291   0.26326

 Mulliken charges:
               1
     1  C   -0.465888
     2  C    0.041482
     3  C    0.016429
     4  O   -0.427768
     5  H    0.180735
     6  H    0.211565
     7  H    0.205226
     8  H    0.238221
 Sum of Mulliken charges =   0.00000

 Dipole moment (field-independent basis, Debye):
    X=             -3.6544    Y=              0.8678    Z=              0.3323  Tot=              3.7708
 Quadrupole moment (field-independent basis, Debye-Ang):
   XX=            -28.1173   YY=            -21.6567   ZZ=            -25.3682
   XY=              1.1950   XZ=              1.1356   YZ=             -0.1776

 Normal termination of Gaussian 09 at Wed May 12 11:58:35 2021.
