 Gaussian 09, Revision D.01,
 Gaussian 09:  ES64L-G09RevD.01 24-Apr-2013

 -----------------------------
 #p wB97XD/6-31+G Opt=ModRedun
 -----------------------------

 -----
 O.pdb
 -----
 Symbolic Z-matrix:
 Charge =  0 Multiplicity = 1

 SCF Done:  E(RwB97XD) =  -268.206516566     A.U. after   14 cycles

 The electronic state is 1-A.
 Alpha  occ. eigenvalues --  -19.31017 -19.28357 -10.45401 -10.36103 -10.31360
 Alpha  occ. eigenvalues --   -1.21720  -1.13548  -0.87772  -0.81797  -0.66427
 Alpha  occ. eigenvalues --   -0.59618  -0.58338  -0.56983  -0.53119  -0.52247
 Alpha  occ. eigenvalues --   -0.50276  -0.46754  -0.43306  -0.38119  -0.36810
 Alpha virt. eigenvalues --    0.04378   0.06949   0.08162   0.10081   0.10475
 Alpha virt. eigenvalues --    0.10860   0.12584   0.13135   0.14992   0.15488
 Alpha virt. eigenvalues --    0.16448   0.18159   0.20165   0.22768   0.24455

 Mulliken charges:
               1
     1  C   -0.635227
     2  C    0.360274
     3  H    0.247723
     4  H    0.239508
     5  H    0.236680
     6  O   -0.304325
     7  O   -0.417726
     8  C   -0.387361
     9  H    0.231257
    10  H    0.224765
    11  H    0.204432
 Sum of Mulliken charges =   0.00000

 Dipole moment (field-independent basis, Debye):
    X=              0.7224    Y=             -2.5177    Z=              1.3974  Tot=              2.9688
 Quadrupole moment (field-independent basis, Debye-Ang):
   XX=            -24.3502   YY=            -35.3685   ZZ=            -30.6032
   XY=              2.8596   XZ=              1.5741   YZ=             -1.2081

 Optimization completed.
    -- Stationary point found.

                         Standard orientation:
 ---------------------------------------------------------------------
 Center     Atomic      Atomic             Coordinates (Angstroms)
 Number     Number       Type             X           Y           Z
 ---------------------------------------------------------------------
      1          6           0       -1.602150   -0.778744    0.166910
      2          6           0       -0.512602    0.203280   -0.133177
      3          1           0       -1.677404   -1.528328   -0.624430
      4          1           0       -2.553824   -0.263204    0.294704
      5          1           0       -1.344653   -1.304206    1.093508
      6          8           0        0.662725   -0.415219   -0.525550
      7          8           0       -0.584936    1.417002    0.029261
      8          6           0        1.863181   -0.177202    0.274210
      9          1           0        2.021768    0.893909    0.417649
     10          1           0        2.681367   -0.610753   -0.295677
     11          1           0        1.759857   -0.685681    1.236899
 ---------------------------------------------------------------------

 Normal termination of Gaussian 09 at Wed May 26 09:01:17 2021.
