 Gaussian 09, Revision D.01,
 Gaussian 09:  ES64L-G09RevD.01 24-Apr-2013

 -----------------------------
 #p wB97XD/6-31+G Opt=ModRedun
 -----------------------------

 -----
 B.pdb
 -----
 Symbolic Z-matrix:
 Charge =  0 Multiplicity = 1

 SCF Done:  E(RwB97XD) =  -255.098572918     A.U. after   13 cycles
 SCF Done:  E(RwB97XD) =  -255.098735772     A.U. after   11 cycles
 SCF Done:  E(RwB97XD) =  -255.098752619     A.U. after   10 cycles
 SCF Done:  E(RwB97XD) =  -255.098755136     A.U. after   10 cycles
 Optimization completed.
    -- Stationary point found.

                         Standard orientation:
 ---------------------------------------------------------------------
 Center     Atomic      Atomic             Coordinates (Angstroms)
 Number     Number       Type             X           Y           Z
 ---------------------------------------------------------------------
      1          6           0        0.849360    1.330161    0.058190
      2          6           0        0.465914    0.056199    0.032363
      3          6           0       -0.861856   -0.551825    0.132571
      4          6           0       -2.014174    0.089033   -0.101034
      5          1           0        1.891740    1.601424   -0.044870
      6          1           0        0.121114    2.119332    0.195060
      7          9           0        1.469746   -0.930365   -0.099512
      8          1           0       -0.862645   -1.599285    0.420140
      9          1           0       -2.046908    1.125347   -0.424767
     10          1           0       -2.966476   -0.414935    0.017504
 ---------------------------------------------------------------------

 The electronic state is 1-A.
 Alpha  occ. eigenvalues --  -24.83076 -10.40326 -10.33137 -10.31992 -10.31080
 Alpha  occ. eigenvalues --   -1.31100  -0.93164  -0.85911  -0.74691  -0.65143
 Alpha  occ. eigenvalues --   -0.61541  -0.58117  -0.54839  -0.53394  -0.50543
 Alpha  occ. eigenvalues --   -0.48423  -0.45717  -0.41083  -0.33091
 Alpha virt. eigenvalues --    0.01255   0.07287   0.08375   0.09041   0.10741
 Alpha virt. eigenvalues --    0.11580   0.12255   0.13032   0.14517   0.15630
 Alpha virt. eigenvalues --    0.16500   0.17603   0.18223   0.19145   0.21098

 Mulliken charges:
               1
     1  C   -0.351780
     2  C    0.043285
     3  C   -0.003911
     4  C   -0.423455
     5  H    0.220114
     6  H    0.200491
     7  F   -0.307868
     8  H    0.228655
     9  H    0.193382
    10  H    0.201088
 Sum of Mulliken charges =   0.00000

 Dipole moment (field-independent basis, Debye):
    X=             -1.9357    Y=              1.4146    Z=              0.2132  Tot=              2.4069
 Quadrupole moment (field-independent basis, Debye-Ang):
   XX=            -28.7133   YY=            -27.5498   ZZ=            -32.4650
   XY=              2.8564   XZ=              0.1239   YZ=             -0.9976

 Normal termination of Gaussian 09 at Wed May 12 11:56:24 2021.
