 Gaussian 09, Revision D.01,
 Gaussian 09:  ES64L-G09RevD.01 24-Apr-2013

 -----------------------------
 #p wB97XD/6-31+G Opt=ModRedun
 -----------------------------

 -----
 N.pdb
 -----
 Symbolic Z-matrix:
 Charge =  0 Multiplicity = 1

 SCF Done:  E(RwB97XD) =  -529.926036147     A.U. after   15 cycles

 The electronic state is 1-A.
 Alpha  occ. eigenvalues --  -24.89033 -24.88906 -24.88857 -19.30509 -10.59513
 Alpha  occ. eigenvalues --  -10.43860 -10.36303 -10.32244  -1.43822  -1.35305
 Alpha  occ. eigenvalues --   -1.35264  -1.19590  -0.95179  -0.87446  -0.79841
 Alpha  occ. eigenvalues --   -0.71005  -0.70151  -0.69068  -0.64114  -0.59466
 Alpha  occ. eigenvalues --   -0.58464  -0.57350  -0.56743  -0.55662  -0.54153
 Alpha  occ. eigenvalues --   -0.53560  -0.52449  -0.51327  -0.51046  -0.49650
 Alpha  occ. eigenvalues --   -0.46419  -0.36989
 Alpha virt. eigenvalues --    0.00830   0.05645   0.07848   0.09227   0.10070
 Alpha virt. eigenvalues --    0.10742   0.11165   0.12423   0.12534   0.12976
 Alpha virt. eigenvalues --    0.14693   0.15936   0.16302   0.16508   0.17319

 Mulliken charges:
               1
     1  C   -0.701333
     2  C    0.396834
     3  H    0.236905
     4  H    0.251084
     5  H    0.257840
     6  C   -0.534039
     7  O   -0.384553
     8  C    0.495520
     9  H    0.294266
    10  H    0.269517
    11  F   -0.180774
    12  F   -0.199748
    13  F   -0.201518
 Sum of Mulliken charges =   0.00000

 Dipole moment (field-independent basis, Debye):
    X=             -1.1115    Y=              2.2930    Z=              2.4254  Tot=              3.5179
 Quadrupole moment (field-independent basis, Debye-Ang):
   XX=            -51.9226   YY=            -48.7456   ZZ=            -44.0288
   XY=             -6.9923   XZ=             -1.3040   YZ=             -1.3084

 Optimization completed.
    -- Stationary point found.

                         Standard orientation:
 ---------------------------------------------------------------------
 Center     Atomic      Atomic             Coordinates (Angstroms)
 Number     Number       Type             X           Y           Z
 ---------------------------------------------------------------------
      1          6           0       -2.092317    1.137585   -0.038544
      2          6           0       -1.488098   -0.220034    0.179115
      3          1           0       -2.231002    1.647460    0.922121
      4          1           0       -3.056082    1.034126   -0.537888
      5          1           0       -1.429666    1.764497   -0.644337
      6          6           0       -0.137644   -0.298589    0.898169
      7          8           0       -2.054055   -1.262707   -0.156260
      8          6           0        1.041583   -0.003045    0.011786
      9          1           0       -0.014124   -1.313574    1.281896
     10          1           0       -0.103787    0.408345    1.731850
     11          9           0        1.089403   -0.819671   -1.107290
     12          9           0        2.240200   -0.175239    0.695896
     13          9           0        1.039948    1.313277   -0.456019
 ---------------------------------------------------------------------

 Normal termination of Gaussian 09 at Wed May 26 09:20:55 2021.
