 Gaussian 09, Revision D.01,
 Gaussian 09:  ES64L-G09RevD.01 24-Apr-2013

 -----------------------------
 #p wB97XD/6-31+G Opt=ModRedun
 -----------------------------

 -----
 N.pdb
 -----
 Symbolic Z-matrix:
 Charge =  0 Multiplicity = 1

 SCF Done:  E(RwB97XD) =  -529.924610880     A.U. after   15 cycles

 The electronic state is 1-A.
 Alpha  occ. eigenvalues --  -24.87927 -24.87836 -24.87791 -19.30276 -10.58500
 Alpha  occ. eigenvalues --  -10.43891 -10.36502 -10.32766  -1.42770  -1.34386
 Alpha  occ. eigenvalues --   -1.34060  -1.19562  -0.94949  -0.87953  -0.79146
 Alpha  occ. eigenvalues --   -0.70426  -0.69228  -0.68462  -0.63308  -0.59522
 Alpha  occ. eigenvalues --   -0.59050  -0.56132  -0.56007  -0.55168  -0.53834
 Alpha  occ. eigenvalues --   -0.52880  -0.51745  -0.51288  -0.50572  -0.49107
 Alpha  occ. eigenvalues --   -0.46488  -0.36848
 Alpha virt. eigenvalues --    0.01596   0.05251   0.07884   0.09138   0.09729
 Alpha virt. eigenvalues --    0.10249   0.11820   0.12071   0.12374   0.13184
 Alpha virt. eigenvalues --    0.14445   0.15120   0.16222   0.17208   0.18109

 Mulliken charges:
               1
     1  C   -0.827029
     2  C    0.625072
     3  H    0.227242
     4  H    0.255816
     5  H    0.248837
     6  C   -0.631431
     7  O   -0.384497
     8  C    0.501237
     9  H    0.292491
    10  H    0.275031
    11  F   -0.175132
    12  F   -0.218615
    13  F   -0.189023
 Sum of Mulliken charges =   0.00000

 Dipole moment (field-independent basis, Debye):
    X=             -3.1990    Y=             -4.2681    Z=             -0.7090  Tot=              5.3808
 Quadrupole moment (field-independent basis, Debye-Ang):
   XX=            -45.5649   YY=            -49.0944   ZZ=            -45.2603
   XY=              5.5475   XZ=             -0.0302   YZ=              0.4418

 Optimization completed.
    -- Stationary point found.

                         Standard orientation:
 ---------------------------------------------------------------------
 Center     Atomic      Atomic             Coordinates (Angstroms)
 Number     Number       Type             X           Y           Z
 ---------------------------------------------------------------------
      1          6           0       -2.765772   -0.663784    0.063522
      2          6           0       -1.479361    0.103422   -0.081945
      3          1           0       -2.855203   -1.440451   -0.703915
      4          1           0       -3.612463    0.020394   -0.001988
      5          1           0       -2.787291   -1.162115    1.040692
      6          6           0       -0.237939   -0.751785   -0.309976
      7          8           0       -1.428762    1.332027   -0.024328
      8          6           0        1.074456   -0.086687   -0.000293
      9          1           0       -0.217288   -1.066942   -1.360018
     10          1           0       -0.299773   -1.661198    0.295651
     11          9           0        1.381109    0.955711   -0.855458
     12          9           0        2.115418   -1.015213   -0.121129
     13          9           0        1.131676    0.398068    1.298404
 ---------------------------------------------------------------------

 Normal termination of Gaussian 09 at Wed May 26 09:20:56 2021.
