 Gaussian 09, Revision D.01,
 Gaussian 09:  ES64L-G09RevD.01 24-Apr-2013

 -----------------------------
 #p wB97XD/6-31+G Opt=ModRedun
 -----------------------------

 -----
 N.pdb
 -----
 Symbolic Z-matrix:
 Charge =  0 Multiplicity = 1

 SCF Done:  E(RwB97XD) =  -529.924757674     A.U. after   14 cycles

 The electronic state is 1-A.
 Alpha  occ. eigenvalues --  -24.87800 -24.87796 -24.87763 -19.30313 -10.58428
 Alpha  occ. eigenvalues --  -10.43903 -10.36534 -10.32761  -1.42710  -1.34342
 Alpha  occ. eigenvalues --   -1.33982  -1.19588  -0.94952  -0.87949  -0.79107
 Alpha  occ. eigenvalues --   -0.70416  -0.69192  -0.68419  -0.63198  -0.59683
 Alpha  occ. eigenvalues --   -0.59094  -0.56084  -0.55944  -0.54969  -0.53913
 Alpha  occ. eigenvalues --   -0.52809  -0.51733  -0.51222  -0.50536  -0.49045
 Alpha  occ. eigenvalues --   -0.46589  -0.36879
 Alpha virt. eigenvalues --    0.01618   0.05211   0.07864   0.09188   0.09618
 Alpha virt. eigenvalues --    0.10260   0.11960   0.12016   0.12902   0.13055
 Alpha virt. eigenvalues --    0.14235   0.14826   0.16123   0.17210   0.17987

 Mulliken charges:
               1
     1  C   -0.865959
     2  C    0.686081
     3  H    0.238793
     4  H    0.256899
     5  H    0.230149
     6  C   -0.694759
     7  O   -0.383875
     8  C    0.545435
     9  H    0.282959
    10  H    0.282854
    11  F   -0.179704
    12  F   -0.219309
    13  F   -0.179563
 Sum of Mulliken charges =   0.00000

 Dipole moment (field-independent basis, Debye):
    X=             -3.2973    Y=              4.3576    Z=              0.0125  Tot=              5.4646
 Quadrupole moment (field-independent basis, Debye-Ang):
   XX=            -45.3968   YY=            -48.8307   ZZ=            -45.5354
   XY=             -5.4840   XZ=             -0.0634   YZ=              0.0241

 Optimization completed.
    -- Stationary point found.

                         Standard orientation:
 ---------------------------------------------------------------------
 Center     Atomic      Atomic             Coordinates (Angstroms)
 Number     Number       Type             X           Y           Z
 ---------------------------------------------------------------------
      1          6           0       -2.797154    0.639207   -0.000331
      2          6           0       -1.481008   -0.093249   -0.002493
      3          1           0       -2.915015    1.204576    0.931913
      4          1           0       -3.613098   -0.079079   -0.086586
      5          1           0       -2.849161    1.354742   -0.828325
      6          6           0       -0.246606    0.800091   -0.002854
      7          8           0       -1.407218   -1.321975   -0.000138
      8          6           0        1.077292    0.088029    0.000114
      9          1           0       -0.276452    1.456334    0.874091
     10          1           0       -0.273653    1.448972   -0.885299
     11          9           0        1.268192   -0.698267    1.123742
     12          9           0        2.116392    1.027338   -0.004341
     13          9           0        1.267636   -0.708428   -1.116213
 ---------------------------------------------------------------------

 Normal termination of Gaussian 09 at Wed May 26 09:20:55 2021.
