 Gaussian 09, Revision D.01,
 Gaussian 09:  ES64L-G09RevD.01 24-Apr-2013

 ----------------------------
 #p B3LYP/6-31+G Opt=ModRedun
 ----------------------------

 -----
 B.pdb
 -----
 Symbolic Z-matrix:
 Charge =  0 Multiplicity = 1

 SCF Done:  E(RB3LYP) =  -255.191856258     A.U. after   12 cycles
 Optimization completed.
    -- Stationary point found.
 SCF Done:  E(RB3LYP) =  -255.189727334     A.U. after   13 cycles
 SCF Done:  E(RB3LYP) =  -255.190443055     A.U. after   11 cycles
 SCF Done:  E(RB3LYP) =  -255.190512256     A.U. after   10 cycles
 SCF Done:  E(RB3LYP) =  -255.190514728     A.U. after    9 cycles
 Optimization completed.
 SCF Done:  E(RB3LYP) =  -255.185766418     A.U. after   13 cycles
 SCF Done:  E(RB3LYP) =  -255.186821995     A.U. after   11 cycles
 SCF Done:  E(RB3LYP) =  -255.186865908     A.U. after   10 cycles
 SCF Done:  E(RB3LYP) =  -255.186866919     A.U. after    9 cycles
 SCF Done:  E(RB3LYP) =  -255.180338930     A.U. after   11 cycles
 SCF Done:  E(RB3LYP) =  -255.182367150     A.U. after   12 cycles
 SCF Done:  E(RB3LYP) =  -255.182383105     A.U. after   10 cycles
 SCF Done:  E(RB3LYP) =  -255.182383775     A.U. after    8 cycles
 SCF Done:  E(RB3LYP) =  -255.184593298     A.U. after   13 cycles
 SCF Done:  E(RB3LYP) =  -255.186850821     A.U. after   12 cycles
 SCF Done:  E(RB3LYP) =  -255.186871492     A.U. after    9 cycles
 SCF Done:  E(RB3LYP) =  -255.186871909     A.U. after    7 cycles
    -- Stationary point found.
 SCF Done:  E(RB3LYP) =  -255.189415988     A.U. after   13 cycles
 SCF Done:  E(RB3LYP) =  -255.190501227     A.U. after   11 cycles
 SCF Done:  E(RB3LYP) =  -255.190517606     A.U. after   10 cycles
 Optimization completed.
    -- Stationary point found.

                         Standard orientation:
 ---------------------------------------------------------------------
 Center     Atomic      Atomic             Coordinates (Angstroms)
 Number     Number       Type             X           Y           Z
 ---------------------------------------------------------------------
      1          6           0       -1.707564   -0.682043   -0.095278
      2          6           0       -0.520614   -0.084516    0.054764
      3          6           0        0.804817   -0.684321    0.122751
      4          6           0        1.957789   -0.030675   -0.105377
      5          1           0       -2.620873   -0.107583   -0.183923
      6          1           0       -1.775699   -1.763219   -0.121780
      7          9           0       -0.500735    1.337086    0.058374
      8          1           0        0.807281   -1.756432    0.307430
      9          1           0        1.980591    1.034831   -0.308049
     10          1           0        2.908749   -0.552045   -0.080200
 ---------------------------------------------------------------------

 The electronic state is 1-A.
 Alpha  occ. eigenvalues --  -24.70636 -10.29270 -10.21994 -10.20548 -10.20419
 Alpha  occ. eigenvalues --   -1.20772  -0.82930  -0.76739  -0.64110  -0.57484
 Alpha  occ. eigenvalues --   -0.51455  -0.50117  -0.45785  -0.44656  -0.42355
 Alpha  occ. eigenvalues --   -0.39832  -0.37802  -0.32869  -0.25526
 Alpha virt. eigenvalues --   -0.05557   0.00157   0.02057   0.03353   0.03739
 Alpha virt. eigenvalues --    0.05024   0.05886   0.06644   0.08397   0.08582
 Alpha virt. eigenvalues --    0.09648   0.10322   0.12207   0.13240   0.13798

 Mulliken charges:
               1
     1  C   -0.414129
     2  C    0.223325
     3  C    0.022064
     4  C   -0.457637
     5  H    0.199122
     6  H    0.187633
     7  F   -0.327268
     8  H    0.186961
     9  H    0.203919
    10  H    0.176010
 Sum of Mulliken charges =   0.00000

 Dipole moment (field-independent basis, Debye):
    X=              0.3605    Y=             -2.0943    Z=             -0.1589  Tot=              2.1310
 Quadrupole moment (field-independent basis, Debye-Ang):
   XX=            -25.5045   YY=            -29.9600   ZZ=            -32.8584
   XY=              1.2617   XZ=              0.0883   YZ=             -0.6832

 Normal termination of Gaussian 09 at Tue May 11 16:56:56 2021.
