 Gaussian 09, Revision D.01,
 Gaussian 09:  ES64L-G09RevD.01 24-Apr-2013

 -----------------------------
 #p wB97XD/6-31+G Opt=ModRedun
 -----------------------------

 -----
 B.pdb
 -----
 Symbolic Z-matrix:
 Charge =  0 Multiplicity = 1

 SCF Done:  E(RwB97XD) =  -255.096506051     A.U. after   13 cycles
 SCF Done:  E(RwB97XD) =  -255.096669744     A.U. after   11 cycles
 SCF Done:  E(RwB97XD) =  -255.096689213     A.U. after   11 cycles
 SCF Done:  E(RwB97XD) =  -255.096692669     A.U. after   10 cycles
 Optimization completed.
    -- Stationary point found.

                         Standard orientation:
 ---------------------------------------------------------------------
 Center     Atomic      Atomic             Coordinates (Angstroms)
 Number     Number       Type             X           Y           Z
 ---------------------------------------------------------------------
      1          6           0        1.037049    1.257319    0.084017
      2          6           0        0.469741    0.056104    0.062416
      3          6           0       -0.905344   -0.345629    0.384304
      4          6           0       -1.978177    0.122469   -0.263053
      5          1           0        2.085564    1.388458   -0.151522
      6          1           0        0.447524    2.128631    0.339020
      7          9           0        1.288702   -1.066380   -0.208823
      8          1           0       -1.005890   -1.105593    1.155660
      9          1           0       -1.884907    0.842360   -1.070915
     10          1           0       -2.980224   -0.198015    0.001056
 ---------------------------------------------------------------------

 The electronic state is 1-A.
 Alpha  occ. eigenvalues --  -24.82939 -10.40202 -10.33114 -10.32086 -10.30987
 Alpha  occ. eigenvalues --   -1.30840  -0.93068  -0.86016  -0.74163  -0.65310
 Alpha  occ. eigenvalues --   -0.61152  -0.57611  -0.56075  -0.52696  -0.50666
 Alpha  occ. eigenvalues --   -0.48497  -0.45300  -0.39270  -0.34293
 Alpha virt. eigenvalues --    0.02903   0.07052   0.07836   0.08543   0.09683
 Alpha virt. eigenvalues --    0.11207   0.12054   0.13303   0.13975   0.14811
 Alpha virt. eigenvalues --    0.16595   0.17446   0.18310   0.18908   0.19714

 Mulliken charges:
               1
     1  C   -0.440662
     2  C    0.092635
     3  C   -0.004550
     4  C   -0.426270
     5  H    0.217260
     6  H    0.211528
     7  F   -0.284732
     8  H    0.229608
     9  H    0.206298
    10  H    0.198885
 Sum of Mulliken charges =   0.00000

 Dipole moment (field-independent basis, Debye):
    X=             -1.7081    Y=              1.6303    Z=              0.4395  Tot=              2.4019
 Quadrupole moment (field-independent basis, Debye-Ang):
   XX=            -27.8308   YY=            -29.8954   ZZ=            -30.6509
   XY=              3.0357   XZ=              0.2102   YZ=             -1.8986

 Normal termination of Gaussian 09 at Wed May 12 11:56:26 2021.
