 Gaussian 09, Revision D.01,
 Gaussian 09:  ES64L-G09RevD.01 24-Apr-2013

 -----------------------------
 #p wB97XD/6-31+G Opt=ModRedun
 -----------------------------

 -----
 B.pdb
 -----
 Symbolic Z-matrix:
 Charge =  0 Multiplicity = 1

 SCF Done:  E(RwB97XD) =  -255.100699026     A.U. after   13 cycles
 SCF Done:  E(RwB97XD) =  -255.100858464     A.U. after   11 cycles
 SCF Done:  E(RwB97XD) =  -255.100873389     A.U. after   11 cycles
 SCF Done:  E(RwB97XD) =  -255.100875631     A.U. after    9 cycles
 Optimization completed.
    -- Stationary point found.

                         Standard orientation:
 ---------------------------------------------------------------------
 Center     Atomic      Atomic             Coordinates (Angstroms)
 Number     Number       Type             X           Y           Z
 ---------------------------------------------------------------------
      1          6           0       -1.699834   -0.682415    0.096283
      2          6           0       -0.522108   -0.078819   -0.051591
      3          6           0        0.805586   -0.682656   -0.123781
      4          6           0        1.950780   -0.028785    0.107284
      5          1           0       -2.616956   -0.114712    0.181805
      6          1           0       -1.756730   -1.763505    0.125057
      7          9           0       -0.501316    1.330748   -0.060883
      8          1           0        0.808486   -1.751616   -0.321345
      9          1           0        1.967426    1.034877    0.318663
     10          1           0        2.903077   -0.545723    0.074602
 ---------------------------------------------------------------------

 The electronic state is 1-A.
 Alpha  occ. eigenvalues --  -24.83264 -10.40345 -10.32906 -10.31399 -10.31152
 Alpha  occ. eigenvalues --   -1.31339  -0.92825  -0.86508  -0.73184  -0.66577
 Alpha  occ. eigenvalues --   -0.60331  -0.58684  -0.54623  -0.53298  -0.50397
 Alpha  occ. eigenvalues --   -0.48208  -0.45748  -0.41060  -0.32843
 Alpha virt. eigenvalues --    0.01826   0.06792   0.08069   0.09819   0.10379
 Alpha virt. eigenvalues --    0.11441   0.12120   0.12886   0.14301   0.15169
 Alpha virt. eigenvalues --    0.16209   0.16567   0.18854   0.19816   0.20146

 Mulliken charges:
               1
     1  C   -0.391847
     2  C    0.146500
     3  C   -0.048226
     4  C   -0.449348
     5  H    0.220582
     6  H    0.207370
     7  F   -0.322475
     8  H    0.216366
     9  H    0.223622
    10  H    0.197457
 Sum of Mulliken charges =   0.00000

 Dipole moment (field-independent basis, Debye):
    X=              0.3783    Y=             -2.0816    Z=              0.1542  Tot=              2.1213
 Quadrupole moment (field-independent basis, Debye-Ang):
   XX=            -24.9599   YY=            -29.5215   ZZ=            -32.6596
   XY=              1.2813   XZ=             -0.0979   YZ=              0.7436

 Normal termination of Gaussian 09 at Wed May 12 11:56:09 2021.
