 Gaussian 09, Revision D.01,
 Gaussian 09:  ES64L-G09RevD.01 24-Apr-2013

 -----------------------------
 #p wB97XD/6-31+G Opt=ModRedun
 -----------------------------

 -----
 B.pdb
 -----
 Symbolic Z-matrix:
 Charge =  0 Multiplicity = 1

 SCF Done:  E(RwB97XD) =  -255.093644610     A.U. after   13 cycles
 SCF Done:  E(RwB97XD) =  -255.093800122     A.U. after   11 cycles
 SCF Done:  E(RwB97XD) =  -255.093818428     A.U. after   11 cycles
 SCF Done:  E(RwB97XD) =  -255.093820835     A.U. after   10 cycles
 Optimization completed.
    -- Stationary point found.

                         Standard orientation:
 ---------------------------------------------------------------------
 Center     Atomic      Atomic             Coordinates (Angstroms)
 Number     Number       Type             X           Y           Z
 ---------------------------------------------------------------------
      1          6           0        1.542266   -0.855957   -0.232227
      2          6           0        0.512048   -0.089437    0.108072
      3          6           0       -0.883508   -0.475354    0.386496
      4          6           0       -1.927328   -0.013958   -0.310246
      5          1           0        2.511706   -0.428364   -0.453683
      6          1           0        1.425171   -1.931341   -0.282015
      7          9           0        0.708097    1.313174    0.117307
      8          1           0       -1.026891   -1.225924    1.160367
      9          1           0       -1.807238    0.723556   -1.097828
     10          1           0       -2.936487   -0.348256   -0.095168
 ---------------------------------------------------------------------

 The electronic state is 1-A.
 Alpha  occ. eigenvalues --  -24.82823 -10.40134 -10.32965 -10.31832 -10.30818
 Alpha  occ. eigenvalues --   -1.30688  -0.92686  -0.86320  -0.73204  -0.66097
 Alpha  occ. eigenvalues --   -0.60166  -0.58203  -0.55599  -0.52353  -0.50688
 Alpha  occ. eigenvalues --   -0.48460  -0.45177  -0.39248  -0.33857
 Alpha virt. eigenvalues --    0.02669   0.06640   0.08086   0.08926   0.09963
 Alpha virt. eigenvalues --    0.11506   0.11849   0.13330   0.13760   0.14365
 Alpha virt. eigenvalues --    0.15773   0.17249   0.18088   0.18884   0.20091

 Mulliken charges:
               1
     1  C   -0.425711
     2  C    0.133435
     3  C   -0.114814
     4  C   -0.359514
     5  H    0.218078
     6  H    0.208350
     7  F   -0.297573
     8  H    0.224922
     9  H    0.214406
    10  H    0.198422
 Sum of Mulliken charges =   0.00000

 Dipole moment (field-independent basis, Debye):
    X=             -0.8705    Y=             -2.1068    Z=             -0.2028  Tot=              2.2885
 Quadrupole moment (field-independent basis, Debye-Ang):
   XX=            -25.5328   YY=            -31.2524   ZZ=            -30.5167
   XY=             -1.5303   XZ=             -0.5130   YZ=             -1.7871

 Normal termination of Gaussian 09 at Wed May 12 11:56:08 2021.
