 Gaussian 09, Revision D.01,
 Gaussian 09:  ES64L-G09RevD.01 24-Apr-2013

 -----------------------------
 #p wB97XD/6-31+G Opt=ModRedun
 -----------------------------

 -----
 L.pdb
 -----
 Symbolic Z-matrix:
 Charge =  0 Multiplicity = 1

 SCF Done:  E(RwB97XD) =  -191.789948322     A.U. after   14 cycles
 SCF Done:  E(RwB97XD) =  -191.790069343     A.U. after   12 cycles
 SCF Done:  E(RwB97XD) =  -191.790053488     A.U. after   12 cycles
 SCF Done:  E(RwB97XD) =  -191.790076387     A.U. after   12 cycles
 Optimization completed.
    -- Stationary point found.

                         Standard orientation:
 ---------------------------------------------------------------------
 Center     Atomic      Atomic             Coordinates (Angstroms)
 Number     Number       Type             X           Y           Z
 ---------------------------------------------------------------------
      1          6           0       -1.508825   -0.450312    0.067007
      2          6           0       -0.657476    0.565439   -0.125718
      3          6           0        0.789462    0.441793    0.143051
      4          8           0        1.465983   -0.558330   -0.125029
      5          1           0        1.276852    1.327363    0.580093
      6          1           0       -2.577454   -0.333339   -0.077191
      7          1           0       -1.149108   -1.428954    0.372106
      8          1           0       -1.017123    1.560054   -0.380817
 ---------------------------------------------------------------------

 The electronic state is 1-A.
 Alpha  occ. eigenvalues --  -19.28898 -10.40626 -10.33099 -10.32961  -1.17159
 Alpha  occ. eigenvalues --   -0.91100  -0.76947  -0.65392  -0.61427  -0.54637
 Alpha  occ. eigenvalues --   -0.53374  -0.48717  -0.47702  -0.37802  -0.35224
 Alpha virt. eigenvalues --   -0.00667   0.06703   0.08017   0.08804   0.10036
 Alpha virt. eigenvalues --    0.11423   0.12564   0.13406   0.14856   0.16235
 Alpha virt. eigenvalues --    0.17575   0.17687   0.20105   0.22356   0.26526

 Mulliken charges:
               1
     1  C   -0.455799
     2  C   -0.032434
     3  C    0.078166
     4  O   -0.419821
     5  H    0.179018
     6  H    0.204703
     7  H    0.227599
     8  H    0.218567
 Sum of Mulliken charges =   0.00000

 Dipole moment (field-independent basis, Debye):
    X=             -2.5620    Y=              1.9834    Z=              0.6209  Tot=              3.2990
 Quadrupole moment (field-independent basis, Debye-Ang):
   XX=            -25.2503   YY=            -22.5478   ZZ=            -25.1339
   XY=              3.5467   XZ=              1.0410   YZ=             -0.9568

 Normal termination of Gaussian 09 at Wed May 12 11:58:34 2021.
