 Gaussian 09, Revision D.01,
 Gaussian 09:  ES64L-G09RevD.01 24-Apr-2013

 -----------------------------
 #p wB97XD/6-31+G Opt=ModRedun
 -----------------------------

 -----
 O.pdb
 -----
 Symbolic Z-matrix:
 Charge =  0 Multiplicity = 1

 SCF Done:  E(RwB97XD) =  -268.207794240     A.U. after   14 cycles

 The electronic state is 1-A.
 Alpha  occ. eigenvalues --  -19.32302 -19.27150 -10.45178 -10.37071 -10.32255
 Alpha  occ. eigenvalues --   -1.21795  -1.13952  -0.87237  -0.84056  -0.67269
 Alpha  occ. eigenvalues --   -0.60694  -0.59290  -0.57571  -0.53726  -0.51676
 Alpha  occ. eigenvalues --   -0.50643  -0.47877  -0.43249  -0.38541  -0.36258
 Alpha virt. eigenvalues --    0.05642   0.06355   0.07657   0.08928   0.09488
 Alpha virt. eigenvalues --    0.12013   0.12611   0.12971   0.14203   0.14900
 Alpha virt. eigenvalues --    0.16854   0.17066   0.19441   0.20831   0.22688

 Mulliken charges:
               1
     1  C   -0.706164
     2  C    0.434339
     3  H    0.243270
     4  H    0.257381
     5  H    0.229406
     6  O   -0.310455
     7  O   -0.410167
     8  C   -0.383049
     9  H    0.210453
    10  H    0.234301
    11  H    0.200685
 Sum of Mulliken charges =   0.00000

 Dipole moment (field-independent basis, Debye):
    X=             -3.3826    Y=              4.1822    Z=              0.2704  Tot=              5.3857
 Quadrupole moment (field-independent basis, Debye-Ang):
   XX=            -30.6876   YY=            -33.0031   ZZ=            -29.6954
   XY=              3.2562   XZ=             -0.8520   YZ=             -0.2864

 Optimization completed.
    -- Stationary point found.

                         Standard orientation:
 ---------------------------------------------------------------------
 Center     Atomic      Atomic             Coordinates (Angstroms)
 Number     Number       Type             X           Y           Z
 ---------------------------------------------------------------------
      1          6           0        0.696875    1.344109   -0.026148
      2          6           0        0.609200   -0.160626   -0.003622
      3          1           0        0.294961    1.739088   -0.965101
      4          1           0        1.744515    1.628647    0.062724
      5          1           0        0.135504    1.796413    0.797700
      6          8           0       -0.634319   -0.727120   -0.165591
      7          8           0        1.581243   -0.899909    0.081310
      8          6           0       -1.850659    0.029771    0.087225
      9          1           0       -1.889149    0.359722    1.128944
     10          1           0       -2.657702   -0.672972   -0.106810
     11          1           0       -1.936020    0.885807   -0.587943
 ---------------------------------------------------------------------

 Normal termination of Gaussian 09 at Wed May 26 09:01:17 2021.
