 Gaussian 09, Revision D.01,
 Gaussian 09:  ES64L-G09RevD.01 24-Apr-2013

 -----------------------------
 #p wB97XD/6-31+G Opt=ModRedun
 -----------------------------

 -----
 O.pdb
 -----
 Symbolic Z-matrix:
 Charge =  0 Multiplicity = 1

 SCF Done:  E(RwB97XD) =  -268.208688458     A.U. after   13 cycles

 The electronic state is 1-A.
 Alpha  occ. eigenvalues --  -19.32472 -19.26960 -10.45159 -10.37115 -10.32305
 Alpha  occ. eigenvalues --   -1.21838  -1.13913  -0.87252  -0.84190  -0.67341
 Alpha  occ. eigenvalues --   -0.60787  -0.59429  -0.57542  -0.53664  -0.51659
 Alpha  occ. eigenvalues --   -0.50551  -0.47976  -0.43425  -0.38443  -0.36207
 Alpha virt. eigenvalues --    0.05902   0.06392   0.07649   0.08805   0.09498
 Alpha virt. eigenvalues --    0.12020   0.12645   0.13020   0.14078   0.14956
 Alpha virt. eigenvalues --    0.16840   0.17021   0.19455   0.20693   0.22282

 Mulliken charges:
               1
     1  C   -0.706423
     2  C    0.435141
     3  H    0.234015
     4  H    0.258563
     5  H    0.232865
     6  O   -0.312094
     7  O   -0.412355
     8  C   -0.370162
     9  H    0.203521
    10  H    0.234301
    11  H    0.202628
 Sum of Mulliken charges =   0.00000

 Dipole moment (field-independent basis, Debye):
    X=             -3.5075    Y=              4.2036    Z=              0.0064  Tot=              5.4748
 Quadrupole moment (field-independent basis, Debye-Ang):
   XX=            -30.9015   YY=            -33.0079   ZZ=            -29.5868
   XY=              3.2498   XZ=             -0.0234   YZ=             -0.0105

 Optimization completed.
    -- Stationary point found.

                         Standard orientation:
 ---------------------------------------------------------------------
 Center     Atomic      Atomic             Coordinates (Angstroms)
 Number     Number       Type             X           Y           Z
 ---------------------------------------------------------------------
      1          6           0        0.670740    1.349107   -0.000761
      2          6           0        0.613427   -0.157336    0.000024
      3          1           0        0.188635    1.765037   -0.891366
      4          1           0        1.717474    1.650289    0.008070
      5          1           0        0.172519    1.768127    0.879358
      6          8           0       -0.624908   -0.754014   -0.004876
      7          8           0        1.604523   -0.876586    0.002404
      8          6           0       -1.853284    0.023770    0.002563
      9          1           0       -1.929024    0.629260    0.909776
     10          1           0       -2.648078   -0.718430   -0.011282
     11          1           0       -1.923737    0.657269   -0.885735
 ---------------------------------------------------------------------

 Normal termination of Gaussian 09 at Wed May 26 09:01:17 2021.
