 Gaussian 09, Revision D.01,
 Gaussian 09:  ES64L-G09RevD.01 24-Apr-2013

 -----------------------------
 #p wB97XD/6-31+G Opt=ModRedun
 -----------------------------

 -----
 B.pdb
 -----
 Symbolic Z-matrix:
 Charge =  0 Multiplicity = 1

 SCF Done:  E(RwB97XD) =  -255.093868217     A.U. after   13 cycles
 SCF Done:  E(RwB97XD) =  -255.094019518     A.U. after   11 cycles
 SCF Done:  E(RwB97XD) =  -255.094038478     A.U. after   10 cycles
 SCF Done:  E(RwB97XD) =  -255.094042716     A.U. after   10 cycles
 Optimization completed.
    -- Stationary point found.

                         Standard orientation:
 ---------------------------------------------------------------------
 Center     Atomic      Atomic             Coordinates (Angstroms)
 Number     Number       Type             X           Y           Z
 ---------------------------------------------------------------------
      1          6           0        1.210242    1.169213    0.009250
      2          6           0        0.478175    0.064102    0.073215
      3          6           0       -0.925018   -0.124652    0.482806
      4          6           0       -1.962998    0.126691   -0.320966
      5          1           0        2.256223    1.135144   -0.268529
      6          1           0        0.758993    2.128941    0.226017
      7          9           0        1.118427   -1.176778   -0.174805
      8          1           0       -1.077660   -0.560448    1.467987
      9          1           0       -1.822611    0.524109   -1.321834
     10          1           0       -2.983188   -0.048867    0.003774
 ---------------------------------------------------------------------

 The electronic state is 1-A.
 Alpha  occ. eigenvalues --  -24.82783 -10.40116 -10.33079 -10.32126 -10.30898
 Alpha  occ. eigenvalues --   -1.30601  -0.92880  -0.86152  -0.73834  -0.65432
 Alpha  occ. eigenvalues --   -0.60799  -0.57487  -0.56389  -0.52523  -0.50631
 Alpha  occ. eigenvalues --   -0.48487  -0.45078  -0.38122  -0.35099
 Alpha virt. eigenvalues --    0.03871   0.06079   0.07746   0.08433   0.09550
 Alpha virt. eigenvalues --    0.11259   0.11797   0.13273   0.13934   0.14483
 Alpha virt. eigenvalues --    0.16270   0.17589   0.18197   0.18617   0.19617

 Mulliken charges:
               1
     1  C   -0.425970
     2  C    0.046556
     3  C   -0.030732
     4  C   -0.380215
     5  H    0.216807
     6  H    0.211932
     7  F   -0.273639
     8  H    0.228385
     9  H    0.208213
    10  H    0.198663
 Sum of Mulliken charges =   0.00000

 Dipole moment (field-independent basis, Debye):
    X=             -1.4947    Y=              1.8064    Z=              0.3893  Tot=              2.3767
 Quadrupole moment (field-independent basis, Debye-Ang):
   XX=            -26.9758   YY=            -31.5951   ZZ=            -29.4569
   XY=              2.9023   XZ=             -0.0442   YZ=             -1.4117

 Normal termination of Gaussian 09 at Wed May 12 11:56:25 2021.
