 Gaussian 09, Revision D.01,
 Gaussian 09:  ES64L-G09RevD.01 24-Apr-2013

 -----------------------------
 #p wB97XD/6-31+G Opt=ModRedun
 -----------------------------

 -----
 L.pdb
 -----
 Symbolic Z-matrix:
 Charge =  0 Multiplicity = 1

 SCF Done:  E(RwB97XD) =  -191.786246692     A.U. after   14 cycles
 SCF Done:  E(RwB97XD) =  -191.786361900     A.U. after   12 cycles
 SCF Done:  E(RwB97XD) =  -191.786329259     A.U. after   12 cycles
 SCF Done:  E(RwB97XD) =  -191.786371965     A.U. after   12 cycles
 Optimization completed.
    -- Stationary point found.

                         Standard orientation:
 ---------------------------------------------------------------------
 Center     Atomic      Atomic             Coordinates (Angstroms)
 Number     Number       Type             X           Y           Z
 ---------------------------------------------------------------------
      1          6           0       -1.560487   -0.419722    0.080423
      2          6           0       -0.647095    0.524502   -0.171080
      3          6           0        0.776355    0.392101    0.215139
      4          8           0        1.530821   -0.503754   -0.177251
      5          1           0        1.172979    1.193158    0.860267
      6          1           0       -2.610415   -0.268800   -0.146614
      7          1           0       -1.280129   -1.374618    0.515594
      8          1           0       -0.941637    1.499007   -0.558133
 ---------------------------------------------------------------------

 The electronic state is 1-A.
 Alpha  occ. eigenvalues --  -19.29271 -10.40934 -10.33116 -10.32825  -1.17513
 Alpha  occ. eigenvalues --   -0.91138  -0.76858  -0.65767  -0.61129  -0.55129
 Alpha  occ. eigenvalues --   -0.53892  -0.48759  -0.47302  -0.37853  -0.35305
 Alpha virt. eigenvalues --    0.00446   0.05737   0.07676   0.08445   0.09716
 Alpha virt. eigenvalues --    0.11231   0.12488   0.13486   0.14709   0.16446
 Alpha virt. eigenvalues --    0.17347   0.17704   0.19741   0.22455   0.26906

 Mulliken charges:
               1
     1  C   -0.445993
     2  C   -0.052455
     3  C    0.073503
     4  O   -0.401566
     5  H    0.180788
     6  H    0.203520
     7  H    0.218272
     8  H    0.223932
 Sum of Mulliken charges =   0.00000

 Dipole moment (field-independent basis, Debye):
    X=             -2.5688    Y=              1.9010    Z=              0.8648  Tot=              3.3106
 Quadrupole moment (field-independent basis, Debye-Ang):
   XX=            -25.8682   YY=            -22.6731   ZZ=            -24.8724
   XY=              3.2890   XZ=              1.5391   YZ=             -1.3510

 Normal termination of Gaussian 09 at Wed May 12 11:58:34 2021.
