 Gaussian 09, Revision D.01,
 Gaussian 09:  ES64L-G09RevD.01 24-Apr-2013

 -----------------------------
 #p wB97XD/6-31+G Opt=ModRedun
 -----------------------------

 -----
 N.pdb
 -----
 Symbolic Z-matrix:
 Charge =  0 Multiplicity = 1

 SCF Done:  E(RwB97XD) =  -529.925247543     A.U. after   15 cycles

 The electronic state is 1-A.
 Alpha  occ. eigenvalues --  -24.88737 -24.88666 -24.88546 -19.30472 -10.59289
 Alpha  occ. eigenvalues --  -10.43848 -10.36284 -10.32418  -1.43556  -1.35041
 Alpha  occ. eigenvalues --   -1.34989  -1.19597  -0.95085  -0.87616  -0.79589
 Alpha  occ. eigenvalues --   -0.70834  -0.69868  -0.68861  -0.64005  -0.59381
 Alpha  occ. eigenvalues --   -0.58459  -0.56918  -0.56628  -0.55736  -0.53839
 Alpha  occ. eigenvalues --   -0.53437  -0.52135  -0.51511  -0.50970  -0.49585
 Alpha  occ. eigenvalues --   -0.46400  -0.36919
 Alpha virt. eigenvalues --    0.00863   0.05333   0.07840   0.09335   0.09865
 Alpha virt. eigenvalues --    0.10489   0.11305   0.12383   0.12538   0.12797
 Alpha virt. eigenvalues --    0.15013   0.15839   0.16163   0.16578   0.17449

 Mulliken charges:
               1
     1  C   -0.718432
     2  C    0.386289
     3  H    0.239077
     4  H    0.251604
     5  H    0.252212
     6  C   -0.510143
     7  O   -0.371981
     8  C    0.496043
     9  H    0.292880
    10  H    0.264423
    11  F   -0.180773
    12  F   -0.203704
    13  F   -0.197494
 Sum of Mulliken charges =   0.00000

 Dipole moment (field-independent basis, Debye):
    X=              1.7609    Y=             -2.9430    Z=              2.3910  Tot=              4.1808
 Quadrupole moment (field-independent basis, Debye-Ang):
   XX=            -49.2694   YY=            -49.7309   ZZ=            -43.8712
   XY=             -6.6916   XZ=              0.9198   YZ=              0.5933

 Optimization completed.
    -- Stationary point found.

                         Standard orientation:
 ---------------------------------------------------------------------
 Center     Atomic      Atomic             Coordinates (Angstroms)
 Number     Number       Type             X           Y           Z
 ---------------------------------------------------------------------
      1          6           0        2.309459   -1.004606   -0.096126
      2          6           0        1.468547    0.203897    0.197259
      3          1           0        2.620340   -1.480540    0.842115
      4          1           0        3.194146   -0.715613   -0.664182
      5          1           0        1.730047   -1.743254   -0.661288
      6          6           0        0.145265   -0.032033    0.933423
      7          8           0        1.812711    1.349816   -0.096833
      8          6           0       -1.045304   -0.034478    0.012704
      9          1           0       -0.001091    0.770441    1.660642
     10          1           0        0.153713   -0.991349    1.455577
     11          9           0       -1.245764    1.172405   -0.630827
     12          9           0       -2.215871   -0.324153    0.709096
     13          9           0       -0.923548   -1.007685   -0.982909
 ---------------------------------------------------------------------

 Normal termination of Gaussian 09 at Wed May 26 09:21:08 2021.
