 Gaussian 09, Revision D.01,
 Gaussian 09:  ES64L-G09RevD.01 24-Apr-2013

 -----------------------------
 #p wB97XD/6-31+G Opt=ModRedun
 -----------------------------

 -----
 O.pdb
 -----
 Symbolic Z-matrix:
 Charge =  0 Multiplicity = 1

 SCF Done:  E(RwB97XD) =  -268.219705423     A.U. after   14 cycles

 The electronic state is 1-A.
 Alpha  occ. eigenvalues --  -19.32491 -19.27644 -10.45037 -10.35633 -10.31065
 Alpha  occ. eigenvalues --   -1.22378  -1.13511  -0.88093  -0.81412  -0.66543
 Alpha  occ. eigenvalues --   -0.59628  -0.58577  -0.56881  -0.52937  -0.51640
 Alpha  occ. eigenvalues --   -0.49544  -0.46272  -0.44225  -0.39072  -0.36739
 Alpha virt. eigenvalues --    0.06022   0.07226   0.08036   0.10086   0.10214
 Alpha virt. eigenvalues --    0.11178   0.12779   0.13223   0.15363   0.15856
 Alpha virt. eigenvalues --    0.16582   0.19829   0.20697   0.22723   0.24775

 Mulliken charges:
               1
     1  C   -0.712129
     2  C    0.415805
     3  H    0.241055
     4  H    0.241109
     5  H    0.244615
     6  O   -0.293036
     7  O   -0.447860
     8  C   -0.353350
     9  H    0.227998
    10  H    0.219305
    11  H    0.216488
 Sum of Mulliken charges =   0.00000

 Dipole moment (field-independent basis, Debye):
    X=              0.4859    Y=             -1.9664    Z=              0.5660  Tot=              2.1032
 Quadrupole moment (field-independent basis, Debye-Ang):
   XX=            -23.1031   YY=            -36.7018   ZZ=            -29.6069
   XY=              2.0668   XZ=              0.3579   YZ=             -0.5194

 Optimization completed.
    -- Stationary point found.

                         Standard orientation:
 ---------------------------------------------------------------------
 Center     Atomic      Atomic             Coordinates (Angstroms)
 Number     Number       Type             X           Y           Z
 ---------------------------------------------------------------------
      1          6           0       -1.784878   -0.557652    0.078612
      2          6           0       -0.486487    0.171908   -0.070597
      3          1           0       -1.833890   -1.410208   -0.601867
      4          1           0       -2.614201    0.124967   -0.106236
      5          1           0       -1.856920   -0.941837    1.101515
      6          8           0        0.570477   -0.690343   -0.177731
      7          8           0       -0.337702    1.393223   -0.020786
      8          6           0        1.902556   -0.157543    0.105138
      9          1           0        2.182655    0.583070   -0.645599
     10          1           0        2.560893   -1.021796    0.066121
     11          1           0        1.912126    0.302480    1.095292
 ---------------------------------------------------------------------

 Normal termination of Gaussian 09 at Wed May 26 09:01:17 2021.
