 Gaussian 09, Revision D.01,
 Gaussian 09:  ES64L-G09RevD.01 24-Apr-2013

 -----------------------------
 #p wB97XD/6-31+G Opt=ModRedun
 -----------------------------

 -----
 B.pdb
 -----
 Symbolic Z-matrix:
 Charge =  0 Multiplicity = 1

 SCF Done:  E(RwB97XD) =  -255.092211855     A.U. after   13 cycles
 SCF Done:  E(RwB97XD) =  -255.092352467     A.U. after   11 cycles
 SCF Done:  E(RwB97XD) =  -255.092368901     A.U. after   10 cycles
 SCF Done:  E(RwB97XD) =  -255.092372127     A.U. after   10 cycles
 Optimization completed.
    -- Stationary point found.

                         Standard orientation:
 ---------------------------------------------------------------------
 Center     Atomic      Atomic             Coordinates (Angstroms)
 Number     Number       Type             X           Y           Z
 ---------------------------------------------------------------------
      1          6           0        1.386951   -1.029926   -0.144672
      2          6           0        0.493965   -0.077582    0.090549
      3          6           0       -0.921904   -0.187159    0.501624
      4          6           0       -1.940925   -0.072502   -0.355083
      5          1           0        2.406422   -0.790477   -0.419919
      6          1           0        1.101212   -2.071202   -0.065096
      7          9           0        0.915300    1.272265   -0.022092
      8          1           0       -1.106658   -0.338755    1.562996
      9          1           0       -1.777165    0.091670   -1.415955
     10          1           0       -2.970033   -0.138599   -0.017707
 ---------------------------------------------------------------------

 The electronic state is 1-A.
 Alpha  occ. eigenvalues --  -24.82681 -10.40049 -10.33008 -10.32081 -10.30778
 Alpha  occ. eigenvalues --   -1.30476  -0.92708  -0.86239  -0.73443  -0.65691
 Alpha  occ. eigenvalues --   -0.60405  -0.57756  -0.56173  -0.52345  -0.50661
 Alpha  occ. eigenvalues --   -0.48484  -0.44960  -0.37753  -0.35206
 Alpha virt. eigenvalues --    0.03792   0.05929   0.07835   0.08446   0.09686
 Alpha virt. eigenvalues --    0.11355   0.11661   0.13337   0.13868   0.14285
 Alpha virt. eigenvalues --    0.15934   0.17661   0.18087   0.18419   0.19734

 Mulliken charges:
               1
     1  C   -0.415310
     2  C    0.034884
     3  C   -0.078955
     4  C   -0.326083
     5  H    0.216675
     6  H    0.210133
     7  F   -0.277419
     8  H    0.227845
     9  H    0.209608
    10  H    0.198620
 Sum of Mulliken charges =   0.00000

 Dipole moment (field-independent basis, Debye):
    X=             -1.2298    Y=             -1.9930    Z=              0.1265  Tot=              2.3453
 Quadrupole moment (field-independent basis, Debye-Ang):
   XX=            -26.1062   YY=            -32.5565   ZZ=            -28.9411
   XY=             -2.3233   XZ=             -0.4849   YZ=             -0.3869

 Normal termination of Gaussian 09 at Wed May 12 11:56:09 2021.
