 Gaussian 09, Revision D.01,
 Gaussian 09:  ES64L-G09RevD.01 24-Apr-2013

 -----------------------------
 #p wB97XD/6-31+G Opt=ModRedun
 -----------------------------

 -----
 B.pdb
 -----
 Symbolic Z-matrix:
 Charge =  0 Multiplicity = 1

 SCF Done:  E(RwB97XD) =  -255.097483052     A.U. after   13 cycles
 SCF Done:  E(RwB97XD) =  -255.097657573     A.U. after   11 cycles
 SCF Done:  E(RwB97XD) =  -255.097676627     A.U. after   11 cycles
 SCF Done:  E(RwB97XD) =  -255.097679363     A.U. after   10 cycles
 Optimization completed.
    -- Stationary point found.

                         Standard orientation:
 ---------------------------------------------------------------------
 Center     Atomic      Atomic             Coordinates (Angstroms)
 Number     Number       Type             X           Y           Z
 ---------------------------------------------------------------------
      1          6           0       -1.644666   -0.740855    0.183823
      2          6           0       -0.520370   -0.085068   -0.092386
      3          6           0        0.835779   -0.618735   -0.250398
      4          6           0        1.937449   -0.016569    0.213120
      5          1           0       -2.577527   -0.216333    0.344102
      6          1           0       -1.642807   -1.822442    0.239338
      7          9           0       -0.570511    1.326450   -0.112228
      8          1           0        0.894826   -1.610127   -0.692836
      9          1           0        1.900412    0.963044    0.677964
     10          1           0        2.910540   -0.484833    0.116525
 ---------------------------------------------------------------------

 The electronic state is 1-A.
 Alpha  occ. eigenvalues --  -24.83087 -10.40280 -10.32943 -10.31557 -10.31016
 Alpha  occ. eigenvalues --   -1.31075  -0.92771  -0.86430  -0.73178  -0.66410
 Alpha  occ. eigenvalues --   -0.60223  -0.58524  -0.55074  -0.52767  -0.50537
 Alpha  occ. eigenvalues --   -0.48342  -0.45534  -0.40442  -0.33110
 Alpha virt. eigenvalues --    0.02080   0.06800   0.08152   0.09545   0.10247
 Alpha virt. eigenvalues --    0.11530   0.12082   0.13025   0.13999   0.14760
 Alpha virt. eigenvalues --    0.15963   0.16798   0.18410   0.19441   0.20206

 Mulliken charges:
               1
     1  C   -0.423356
     2  C    0.178135
     3  C   -0.102639
     4  C   -0.403739
     5  H    0.219791
     6  H    0.207712
     7  F   -0.313731
     8  H    0.219286
     9  H    0.220739
    10  H    0.197802
 Sum of Mulliken charges =   0.00000

 Dipole moment (field-independent basis, Debye):
    X=              0.5512    Y=             -2.1091    Z=              0.2572  Tot=              2.1950
 Quadrupole moment (field-independent basis, Debye-Ang):
   XX=            -25.1920   YY=            -30.0351   ZZ=            -31.9610
   XY=              1.2863   XZ=             -0.2572   YZ=              1.4664

 Normal termination of Gaussian 09 at Wed May 12 11:56:08 2021.
