 Gaussian 09, Revision D.01,
 Gaussian 09:  ES64L-G09RevD.01 24-Apr-2013

 -----------------------------
 #p wB97XD/6-31+G Opt=ModRedun
 -----------------------------

 -----
 N.pdb
 -----
 Symbolic Z-matrix:
 Charge =  0 Multiplicity = 1

 SCF Done:  E(RwB97XD) =  -529.927169892     A.U. after   15 cycles

 The electronic state is 1-A.
 Alpha  occ. eigenvalues --  -24.89128 -24.89126 -24.89057 -19.30461 -10.59577
 Alpha  occ. eigenvalues --  -10.43887 -10.36307 -10.32169  -1.43961  -1.35495
 Alpha  occ. eigenvalues --   -1.35384  -1.19564  -0.95293  -0.87323  -0.80036
 Alpha  occ. eigenvalues --   -0.71061  -0.70304  -0.69175  -0.64249  -0.59616
 Alpha  occ. eigenvalues --   -0.58489  -0.57579  -0.56863  -0.55488  -0.54265
 Alpha  occ. eigenvalues --   -0.53712  -0.52631  -0.51660  -0.50661  -0.49703
 Alpha  occ. eigenvalues --   -0.46412  -0.37010
 Alpha virt. eigenvalues --    0.01036   0.05970   0.07928   0.09191   0.10179
 Alpha virt. eigenvalues --    0.10675   0.11185   0.12246   0.12598   0.13230
 Alpha virt. eigenvalues --    0.14104   0.15844   0.16596   0.16847   0.17496

 Mulliken charges:
               1
     1  C   -0.684369
     2  C    0.405285
     3  H    0.237701
     4  H    0.250536
     5  H    0.261998
     6  C   -0.531969
     7  O   -0.395813
     8  C    0.452718
     9  H    0.294892
    10  H    0.282245
    11  F   -0.179111
    12  F   -0.201283
    13  F   -0.192829
 Sum of Mulliken charges =   0.00000

 Dipole moment (field-independent basis, Debye):
    X=              0.5414    Y=              1.5966    Z=             -2.1563  Tot=              2.7372
 Quadrupole moment (field-independent basis, Debye-Ang):
   XX=            -54.5940   YY=            -47.3379   ZZ=            -44.4078
   XY=              6.8556   XZ=             -1.4170   YZ=              1.6866

 Optimization completed.
    -- Stationary point found.

                         Standard orientation:
 ---------------------------------------------------------------------
 Center     Atomic      Atomic             Coordinates (Angstroms)
 Number     Number       Type             X           Y           Z
 ---------------------------------------------------------------------
      1          6           0        1.874923    1.222964   -0.013864
      2          6           0        1.505993   -0.226340   -0.147756
      3          1           0        1.625949    1.779900   -0.922354
      4          1           0        2.940887    1.308548    0.199989
      5          1           0        1.311589    1.681042    0.807586
      6          6           0        0.149499   -0.582476   -0.759101
      7          8           0        2.273596   -1.138371    0.168692
      8          6           0       -1.034951   -0.041962   -0.008796
      9          1           0        0.066448   -1.670971   -0.780837
     10          1           0        0.092452   -0.203712   -1.784880
     11          9           0       -0.975557   -0.325319    1.350661
     12          9           0       -2.224836   -0.577372   -0.486551
     13          9           0       -1.155037    1.344808   -0.118769
 ---------------------------------------------------------------------

 Normal termination of Gaussian 09 at Wed May 26 09:20:55 2021.
