 Gaussian 09, Revision D.01,
 Gaussian 09:  ES64L-G09RevD.01 24-Apr-2013

 -----------------------------
 #p wB97XD/6-31+G Opt=ModRedun
 -----------------------------

 -----
 O.pdb
 -----
 Symbolic Z-matrix:
 Charge =  0 Multiplicity = 1

 SCF Done:  E(RwB97XD) =  -268.213730868     A.U. after   14 cycles

 The electronic state is 1-A.
 Alpha  occ. eigenvalues --  -19.31882 -19.27906 -10.45179 -10.35835 -10.31190
 Alpha  occ. eigenvalues --   -1.22061  -1.13518  -0.87947  -0.81582  -0.66491
 Alpha  occ. eigenvalues --   -0.59584  -0.58498  -0.56841  -0.53053  -0.51861
 Alpha  occ. eigenvalues --   -0.49840  -0.46543  -0.43764  -0.38680  -0.36740
 Alpha virt. eigenvalues --    0.05181   0.07122   0.08188   0.10100   0.10282
 Alpha virt. eigenvalues --    0.11081   0.12745   0.13074   0.15301   0.15796
 Alpha virt. eigenvalues --    0.16387   0.19222   0.20527   0.22573   0.24556

 Mulliken charges:
               1
     1  C   -0.666661
     2  C    0.383509
     3  H    0.243272
     4  H    0.239702
     5  H    0.241402
     6  O   -0.297908
     7  O   -0.436147
     8  C   -0.370447
     9  H    0.232307
    10  H    0.222053
    11  H    0.208918
 Sum of Mulliken charges =   0.00000

 Dipole moment (field-independent basis, Debye):
    X=              0.5600    Y=             -2.1503    Z=              1.0508  Tot=              2.4579
 Quadrupole moment (field-independent basis, Debye-Ang):
   XX=            -23.5270   YY=            -36.2561   ZZ=            -29.9658
   XY=              2.3771   XZ=              0.8947   YZ=             -0.9909

 Optimization completed.
    -- Stationary point found.

                         Standard orientation:
 ---------------------------------------------------------------------
 Center     Atomic      Atomic             Coordinates (Angstroms)
 Number     Number       Type             X           Y           Z
 ---------------------------------------------------------------------
      1          6           0       -1.720396   -0.635458    0.145286
      2          6           0       -0.496696    0.184910   -0.120992
      3          1           0       -1.797541   -1.465533   -0.560290
      4          1           0       -2.610879   -0.008988    0.095209
      5          1           0       -1.632521   -1.061248    1.150644
      6          8           0        0.606240   -0.600113   -0.361017
      7          8           0       -0.422498    1.408141   -0.020006
      8          6           0        1.884469   -0.164957    0.202677
      9          1           0        2.192000    0.788785   -0.228955
     10          1           0        2.587182   -0.952637   -0.057204
     11          1           0        1.787567   -0.071574    1.286953
 ---------------------------------------------------------------------

 Normal termination of Gaussian 09 at Wed May 26 09:01:17 2021.
