 Gaussian 09, Revision D.01,
 Gaussian 09:  ES64L-G09RevD.01 24-Apr-2013

 -----------------------------
 #p wB97XD/6-31+G Opt=ModRedun
 -----------------------------

 -----
 O.pdb
 -----
 Symbolic Z-matrix:
 Charge =  0 Multiplicity = 1

 SCF Done:  E(RwB97XD) =  -268.206097484     A.U. after   14 cycles

 The electronic state is 1-A.
 Alpha  occ. eigenvalues --  -19.30967 -19.28389 -10.45413 -10.36126 -10.31373
 Alpha  occ. eigenvalues --   -1.21707  -1.13552  -0.87762  -0.81812  -0.66429
 Alpha  occ. eigenvalues --   -0.59620  -0.58336  -0.56995  -0.53111  -0.52278
 Alpha  occ. eigenvalues --   -0.50303  -0.46772  -0.43287  -0.38098  -0.36807
 Alpha virt. eigenvalues --    0.04337   0.06934   0.08155   0.10075   0.10490
 Alpha virt. eigenvalues --    0.10845   0.12574   0.13136   0.14970   0.15465
 Alpha virt. eigenvalues --    0.16461   0.18097   0.20138   0.22777   0.24455

 Mulliken charges:
               1
     1  C   -0.634370
     2  C    0.359227
     3  H    0.236280
     4  H    0.239539
     5  H    0.248038
     6  O   -0.304981
     7  O   -0.415896
     8  C   -0.387510
     9  H    0.203926
    10  H    0.224971
    11  H    0.230775
 Sum of Mulliken charges =   0.00000

 Dipole moment (field-independent basis, Debye):
    X=             -0.7348    Y=             -2.5478    Z=              1.4111  Tot=              3.0037
 Quadrupole moment (field-independent basis, Debye-Ang):
   XX=            -24.4149   YY=            -35.3019   ZZ=            -30.6465
   XY=             -2.8798   XZ=             -1.6231   YZ=             -1.2080

 Optimization completed.
    -- Stationary point found.

                         Standard orientation:
 ---------------------------------------------------------------------
 Center     Atomic      Atomic             Coordinates (Angstroms)
 Number     Number       Type             X           Y           Z
 ---------------------------------------------------------------------
      1          6           0        1.593093   -0.789026    0.166420
      2          6           0        0.513653    0.204360   -0.132941
      3          1           0        1.324243   -1.322101    1.085459
      4          1           0        2.547701   -0.282238    0.306710
      5          1           0        1.668766   -1.531148   -0.631950
      6          8           0       -0.666325   -0.400868   -0.534086
      7          8           0        0.596888    1.416566    0.033873
      8          6           0       -1.861613   -0.177957    0.277416
      9          1           0       -1.752367   -0.701959    1.231196
     10          1           0       -2.682960   -0.602928   -0.294402
     11          1           0       -2.020684    0.890524    0.439313
 ---------------------------------------------------------------------

 Normal termination of Gaussian 09 at Wed May 26 09:01:20 2021.
