 Gaussian 09, Revision D.01,
 Gaussian 09:  ES64L-G09RevD.01 24-Apr-2013

 -----------------------------
 #p wB97XD/6-31+G Opt=ModRedun
 -----------------------------

 -----
 N.pdb
 -----
 Symbolic Z-matrix:
 Charge =  0 Multiplicity = 1

 SCF Done:  E(RwB97XD) =  -529.923996948     A.U. after   15 cycles

 The electronic state is 1-A.
 Alpha  occ. eigenvalues --  -24.88151 -24.88037 -24.87932 -19.30288 -10.58710
 Alpha  occ. eigenvalues --  -10.43890 -10.36418 -10.32711  -1.42956  -1.34525
 Alpha  occ. eigenvalues --   -1.34290  -1.19564  -0.94919  -0.87908  -0.79238
 Alpha  occ. eigenvalues --   -0.70481  -0.69361  -0.68562  -0.63542  -0.59323
 Alpha  occ. eigenvalues --   -0.58887  -0.56283  -0.56216  -0.55474  -0.53701
 Alpha  occ. eigenvalues --   -0.53061  -0.51739  -0.51478  -0.50598  -0.49257
 Alpha  occ. eigenvalues --   -0.46428  -0.36817
 Alpha virt. eigenvalues --    0.01348   0.05307   0.07880   0.09182   0.09787
 Alpha virt. eigenvalues --    0.10203   0.11587   0.12182   0.12273   0.12998
 Alpha virt. eigenvalues --    0.14687   0.15384   0.16324   0.17209   0.18058

 Mulliken charges:
               1
     1  C   -0.790260
     2  C    0.549665
     3  H    0.231120
     4  H    0.254050
     5  H    0.250142
     6  C   -0.543243
     7  O   -0.389007
     8  C    0.456793
     9  H    0.294793
    10  H    0.266882
    11  F   -0.172756
    12  F   -0.215047
    13  F   -0.193132
 Sum of Mulliken charges =   0.00000

 Dipole moment (field-independent basis, Debye):
    X=             -2.8811    Y=             -3.9835    Z=             -1.4331  Tot=              5.1208
 Quadrupole moment (field-independent basis, Debye-Ang):
   XX=            -46.2244   YY=            -49.6001   ZZ=            -44.6717
   XY=              5.7982   XZ=              0.1559   YZ=              0.5362

 Optimization completed.
    -- Stationary point found.

                         Standard orientation:
 ---------------------------------------------------------------------
 Center     Atomic      Atomic             Coordinates (Angstroms)
 Number     Number       Type             X           Y           Z
 ---------------------------------------------------------------------
      1          6           0       -2.674904   -0.736313    0.112083
      2          6           0       -1.475193    0.130895   -0.147186
      3          1           0       -2.846938   -1.428716   -0.720006
      4          1           0       -3.557980   -0.115241    0.264580
      5          1           0       -2.500837   -1.341345    1.010715
      6          6           0       -0.211469   -0.601575   -0.599307
      7          8           0       -1.498273    1.355486   -0.021991
      8          6           0        1.067428   -0.079717   -0.003533
      9          1           0       -0.131888   -0.521491   -1.689403
     10          1           0       -0.277863   -1.663447   -0.350236
     11          9           0        1.416947    1.182835   -0.440409
     12          9           0        2.131235   -0.923965   -0.336481
     13          9           0        1.014764   -0.042579    1.386660
 ---------------------------------------------------------------------

 Normal termination of Gaussian 09 at Wed May 26 09:20:56 2021.
