 Gaussian 09, Revision D.01,
 Gaussian 09:  ES64L-G09RevD.01 24-Apr-2013

 ----------------------------
 #p B3LYP/6-31+G Opt=ModRedun
 ----------------------------

 -----
 L.pdb
 -----
 Symbolic Z-matrix:
 Charge =  0 Multiplicity = 1

 SCF Done:  E(RB3LYP) =  -191.868754884     A.U. after   11 cycles
 Optimization completed.
    -- Stationary point found.
 SCF Done:  E(RB3LYP) =  -191.865237037     A.U. after   12 cycles
 SCF Done:  E(RB3LYP) =  -191.865061723     A.U. after   12 cycles
 SCF Done:  E(RB3LYP) =  -191.867260323     A.U. after   10 cycles
 SCF Done:  E(RB3LYP) =  -191.867414740     A.U. after   11 cycles
 SCF Done:  E(RB3LYP) =  -191.867420784     A.U. after   10 cycles
 SCF Done:  E(RB3LYP) =  -191.867421759     A.U. after    9 cycles
 Optimization completed.
 SCF Done:  E(RB3LYP) =  -191.861267022     A.U. after   12 cycles
 SCF Done:  E(RB3LYP) =  -191.863600828     A.U. after   11 cycles
 SCF Done:  E(RB3LYP) =  -191.863673879     A.U. after   11 cycles
 SCF Done:  E(RB3LYP) =  -191.858421554     A.U. after   11 cycles
 SCF Done:  E(RB3LYP) =  -191.858432446     A.U. after   10 cycles
 SCF Done:  E(RB3LYP) =  -191.858433180     A.U. after    9 cycles
 SCF Done:  E(RB3LYP) =  -191.860443697     A.U. after   12 cycles
 SCF Done:  E(RB3LYP) =  -191.863602625     A.U. after   12 cycles
 SCF Done:  E(RB3LYP) =  -191.863674612     A.U. after   11 cycles
 SCF Done:  E(RB3LYP) =  -191.863675519     A.U. after   10 cycles
    -- Stationary point found.
 SCF Done:  E(RB3LYP) =  -191.864973296     A.U. after   12 cycles
 SCF Done:  E(RB3LYP) =  -191.867396166     A.U. after   11 cycles
 SCF Done:  E(RB3LYP) =  -191.867421830     A.U. after   10 cycles
 Optimization completed.
    -- Stationary point found.

                         Standard orientation:
 ---------------------------------------------------------------------
 Center     Atomic      Atomic             Coordinates (Angstroms)
 Number     Number       Type             X           Y           Z
 ---------------------------------------------------------------------
      1          6           0        1.767206    0.138911   -0.071259
      2          6           0        0.564894   -0.440494    0.100154
      3          6           0       -0.672180    0.353045    0.098052
      4          8           0       -1.801293   -0.126245   -0.106751
      5          1           0       -0.549492    1.442667    0.236163
      6          1           0        2.681248   -0.440901   -0.147507
      7          1           0        1.870368    1.220037   -0.142880
      8          1           0        0.448699   -1.520620    0.146546
 ---------------------------------------------------------------------

 The electronic state is 1-A.
 Alpha  occ. eigenvalues --  -19.16820 -10.29551 -10.23155 -10.22522  -1.06761
 Alpha  occ. eigenvalues --   -0.82221  -0.66828  -0.59148  -0.49782  -0.49042
 Alpha  occ. eigenvalues --   -0.43183  -0.41232  -0.40509  -0.30651  -0.27343
 Alpha virt. eigenvalues --   -0.08796   0.00438   0.01119   0.02090   0.03242
 Alpha virt. eigenvalues --    0.05677   0.06417   0.06602   0.09125   0.09343
 Alpha virt. eigenvalues --    0.11465   0.12239   0.13585   0.16210   0.19076

 Mulliken charges:
               1
     1  C   -0.448142
     2  C    0.117817
     3  C    0.012914
     4  O   -0.429990
     5  H    0.161867
     6  H    0.190855
     7  H    0.187118
     8  H    0.207560
 Sum of Mulliken charges =   0.00000

 Dipole moment (field-independent basis, Debye):
    X=              3.6697    Y=              0.8046    Z=              0.3107  Tot=              3.7697
 Quadrupole moment (field-independent basis, Debye-Ang):
   XX=            -28.3958   YY=            -22.0785   ZZ=            -25.5108
   XY=             -1.1834   XZ=             -1.1107   YZ=             -0.1685

 Normal termination of Gaussian 09 at Tue May 11 17:02:53 2021.
