 Gaussian 09, Revision D.01,
 Gaussian 09:  ES64L-G09RevD.01 24-Apr-2013

 -----------------------------
 #p wB97XD/6-31+G Opt=ModRedun
 -----------------------------

 -----
 L.pdb
 -----
 Symbolic Z-matrix:
 Charge =  0 Multiplicity = 1

 SCF Done:  E(RwB97XD) =  -191.786246827     A.U. after   14 cycles
 SCF Done:  E(RwB97XD) =  -191.786360696     A.U. after   12 cycles
 SCF Done:  E(RwB97XD) =  -191.786321955     A.U. after   12 cycles
 SCF Done:  E(RwB97XD) =  -191.786372345     A.U. after   12 cycles
 Optimization completed.
    -- Stationary point found.

                         Standard orientation:
 ---------------------------------------------------------------------
 Center     Atomic      Atomic             Coordinates (Angstroms)
 Number     Number       Type             X           Y           Z
 ---------------------------------------------------------------------
      1          6           0        1.560601   -0.419704    0.080409
      2          6           0        0.647092    0.524438   -0.171084
      3          6           0       -0.776351    0.392107    0.215104
      4          8           0       -1.530946   -0.503768   -0.177187
      5          1           0       -1.172978    1.193379    0.859993
      6          1           0        2.610522   -0.268636   -0.146590
      7          1           0        1.280364   -1.374690    0.515469
      8          1           0        0.941603    1.499047   -0.557950
 ---------------------------------------------------------------------

 The electronic state is 1-A.
 Alpha  occ. eigenvalues --  -19.29271 -10.40934 -10.33117 -10.32827  -1.17509
 Alpha  occ. eigenvalues --   -0.91138  -0.76859  -0.65767  -0.61128  -0.55129
 Alpha  occ. eigenvalues --   -0.53891  -0.48759  -0.47300  -0.37853  -0.35305
 Alpha virt. eigenvalues --    0.00444   0.05737   0.07677   0.08444   0.09716
 Alpha virt. eigenvalues --    0.11230   0.12488   0.13486   0.14709   0.16446
 Alpha virt. eigenvalues --    0.17346   0.17704   0.19741   0.22455   0.26904

 Mulliken charges:
               1
     1  C   -0.445998
     2  C   -0.052445
     3  C    0.073530
     4  O   -0.401596
     5  H    0.180790
     6  H    0.203522
     7  H    0.218279
     8  H    0.223918
 Sum of Mulliken charges =   0.00000

 Dipole moment (field-independent basis, Debye):
    X=              2.5695    Y=              1.9011    Z=              0.8647  Tot=              3.3112
 Quadrupole moment (field-independent basis, Debye-Ang):
   XX=            -25.8685   YY=            -22.6728   ZZ=            -24.8729
   XY=             -3.2893   XZ=             -1.5384   YZ=             -1.3505

 Normal termination of Gaussian 09 at Wed May 12 11:58:34 2021.
