 Gaussian 09, Revision D.01,
 Gaussian 09:  ES64L-G09RevD.01 24-Apr-2013

 -----------------------------
 #p wB97XD/6-31+G Opt=ModRedun
 -----------------------------

 -----
 B.pdb
 -----
 Symbolic Z-matrix:
 Charge =  0 Multiplicity = 1

 SCF Done:  E(RwB97XD) =  -255.092211480     A.U. after   13 cycles
 SCF Done:  E(RwB97XD) =  -255.092351957     A.U. after   11 cycles
 SCF Done:  E(RwB97XD) =  -255.092368488     A.U. after   10 cycles
 SCF Done:  E(RwB97XD) =  -255.092371737     A.U. after   10 cycles
 Optimization completed.
    -- Stationary point found.

                         Standard orientation:
 ---------------------------------------------------------------------
 Center     Atomic      Atomic             Coordinates (Angstroms)
 Number     Number       Type             X           Y           Z
 ---------------------------------------------------------------------
      1          6           0       -1.387133   -1.029742   -0.144847
      2          6           0       -0.493984   -0.077597    0.090564
      3          6           0        0.921883   -0.187520    0.501559
      4          6           0        1.940909   -0.072413   -0.355078
      5          1           0       -2.406561   -0.790050   -0.420046
      6          1           0       -1.101606   -2.071089   -0.065458
      7          9           0       -0.915077    1.272334   -0.021878
      8          1           0        1.106626   -0.339878    1.562825
      9          1           0        1.777165    0.092469   -1.415844
     10          1           0        2.970017   -0.138824   -0.017765
 ---------------------------------------------------------------------

 The electronic state is 1-A.
 Alpha  occ. eigenvalues --  -24.82681 -10.40049 -10.33008 -10.32081 -10.30778
 Alpha  occ. eigenvalues --   -1.30476  -0.92707  -0.86239  -0.73443  -0.65692
 Alpha  occ. eigenvalues --   -0.60405  -0.57756  -0.56172  -0.52345  -0.50661
 Alpha  occ. eigenvalues --   -0.48484  -0.44960  -0.37754  -0.35205
 Alpha virt. eigenvalues --    0.03791   0.05930   0.07835   0.08446   0.09686
 Alpha virt. eigenvalues --    0.11355   0.11661   0.13338   0.13868   0.14285
 Alpha virt. eigenvalues --    0.15934   0.17661   0.18087   0.18419   0.19734

 Mulliken charges:
               1
     1  C   -0.415314
     2  C    0.034945
     3  C   -0.079004
     4  C   -0.326071
     5  H    0.216674
     6  H    0.210132
     7  F   -0.277435
     8  H    0.227844
     9  H    0.209609
    10  H    0.198620
 Sum of Mulliken charges =   0.00000

 Dipole moment (field-independent basis, Debye):
    X=              1.2295    Y=             -1.9932    Z=              0.1261  Tot=              2.3453
 Quadrupole moment (field-independent basis, Debye-Ang):
   XX=            -26.1054   YY=            -32.5562   ZZ=            -28.9417
   XY=              2.3224   XZ=              0.4852   YZ=             -0.3894

 Normal termination of Gaussian 09 at Wed May 12 11:56:25 2021.
