 Gaussian 09, Revision D.01,
 Gaussian 09:  ES64L-G09RevD.01 24-Apr-2013

 ---------------------------------
 #p wB97XD/6-31+G Opt Freq=NoRaman
 ---------------------------------

 -----
 N.pdb
 -----
 Symbolic Z-matrix:
 Charge =  0 Multiplicity = 1

 SCF Done:  E(RwB97XD) =  -529.918519924     A.U. after   15 cycles
 SCF Done:  E(RwB97XD) =  -529.924907099     A.U. after   13 cycles
 SCF Done:  E(RwB97XD) =  -529.925605272     A.U. after   14 cycles
 SCF Done:  E(RwB97XD) =  -529.925719745     A.U. after   14 cycles
 SCF Done:  E(RwB97XD) =  -529.926299211     A.U. after   14 cycles
 SCF Done:  E(RwB97XD) =  -529.927164069     A.U. after   14 cycles
 SCF Done:  E(RwB97XD) =  -529.927608589     A.U. after   14 cycles
 SCF Done:  E(RwB97XD) =  -529.927745869     A.U. after   14 cycles
 SCF Done:  E(RwB97XD) =  -529.927838469     A.U. after   14 cycles
 SCF Done:  E(RwB97XD) =  -529.927863533     A.U. after   13 cycles
 SCF Done:  E(RwB97XD) =  -529.927875350     A.U. after   11 cycles
 SCF Done:  E(RwB97XD) =  -529.927880532     A.U. after   12 cycles
 SCF Done:  E(RwB97XD) =  -529.927883049     A.U. after   11 cycles
 SCF Done:  E(RwB97XD) =  -529.927883917     A.U. after   12 cycles
 Optimization completed.
    -- Stationary point found.
 Normal termination of Gaussian 09 at Wed May 26 08:17:46 2021.

 -------------------------------------------------------------------
 #P Geom=AllCheck Guess=TCheck SCRF=Check GenChk RwB97XD/6-31+G Freq
 -------------------------------------------------------------------

 Structure from the checkpoint file:  "/home/unibas/boittier/RDKit_G2/N.pdb/OPT_wB97XD_6-31+G/N.pdb.chk"
 -----
 N.pdb
 -----
 Charge =  0 Multiplicity = 1

                         Standard orientation:
 ---------------------------------------------------------------------
 Center     Atomic      Atomic             Coordinates (Angstroms)
 Number     Number       Type             X           Y           Z
 ---------------------------------------------------------------------
      1          6           0        1.731242    1.259959    0.033795
      2          6           0        1.534811   -0.226875    0.089213
      3          1           0        1.128587    1.700109   -0.768108
      4          1           0        2.784435    1.473386   -0.150823
      5          1           0        1.413661    1.731329    0.969579
      6          6           0        0.176274   -0.802772    0.492258
      7          8           0        2.453887   -1.021954   -0.127051
      8          6           0       -1.037073   -0.067954    0.003940
      9          1           0        0.122911   -0.837617    1.586856
     10          1           0        0.126497   -1.829792    0.123948
     11          9           0       -1.195786    1.183996    0.598461
     12          9           0       -2.198913   -0.780201    0.277416
     13          9           0       -1.009602    0.147768   -1.371464
 ---------------------------------------------------------------------

 SCF Done:  E(RwB97XD) =  -529.927883917     A.U. after    1 cycles

 The electronic state is 1-A.
 Alpha  occ. eigenvalues --  -24.89239 -24.89237 -24.89096 -19.30312 -10.59567
 Alpha  occ. eigenvalues --  -10.43945 -10.36402 -10.32074  -1.44030  -1.35549
 Alpha  occ. eigenvalues --   -1.35479  -1.19492  -0.95299  -0.87263  -0.80202
 Alpha  occ. eigenvalues --   -0.71096  -0.70406  -0.69274  -0.64272  -0.59751
 Alpha  occ. eigenvalues --   -0.58493  -0.57690  -0.56986  -0.55290  -0.54256
 Alpha  occ. eigenvalues --   -0.53755  -0.52720  -0.52133  -0.50483  -0.49610
 Alpha  occ. eigenvalues --   -0.46216  -0.36994
 Alpha virt. eigenvalues --    0.01309   0.06223   0.08085   0.09363   0.10108
 Alpha virt. eigenvalues --    0.10714   0.11165   0.11882   0.12776   0.13455
 Alpha virt. eigenvalues --    0.13640   0.15892   0.16765   0.17214   0.17783

 Mulliken charges:
               1
     1  C   -0.729930
     2  C    0.446836
     3  H    0.260272
     4  H    0.250670
     5  H    0.249677
     6  C   -0.517442
     7  O   -0.403145
     8  C    0.445393
     9  H    0.291460
    10  H    0.295777
    11  F   -0.192804
    12  F   -0.205182
    13  F   -0.191581
 Sum of Mulliken charges =   0.00000

 Dipole moment (field-independent basis, Debye):
    X=              0.1757    Y=              0.9612    Z=              1.5398  Tot=              1.8237
 Quadrupole moment (field-independent basis, Debye-Ang):
   XX=            -56.9508   YY=            -45.8433   ZZ=            -45.0113
   XY=              6.5328   XZ=              1.2023   YZ=             -1.3611

  Exact polarizability:  54.939  -1.731  51.752  -3.088   0.506  41.674
 Approx polarizability:  53.785  -5.453  53.415  -4.231   2.037  44.714

                      1                      2                      3
                      A                      A                      A
 Frequencies --     44.3858                99.0311               187.8968
 Red. masses --      5.5036                 5.2415                 6.8130
 Frc consts  --      0.0064                 0.0303                 0.1417
 IR Inten    --     10.7355                 1.6190                 7.3125

                      4                      5                      6
                      A                      A                      A
 Frequencies --    260.9034               311.5421               339.8967
 Red. masses --      1.0556                 4.6926                 5.4112
 Frc consts  --      0.0423                 0.2683                 0.3683
 IR Inten    --      0.2870                 3.0675                 2.1628

                      7                      8                      9
                      A                      A                      A
 Frequencies --    384.0382               467.8599               490.3022
 Red. masses --      3.8921                 5.3711                 4.7991
 Frc consts  --      0.3382                 0.6927                 0.6797
 IR Inten    --      2.6161                12.0577                 2.9729

                     10                     11                     12
                      A                      A                      A
 Frequencies --    513.1035               574.3820               644.7473
 Red. masses --      4.8636                 3.8342                 7.5499
 Frc consts  --      0.7544                 0.7453                 1.8491
 IR Inten    --      0.6119                19.8740                16.9122

                     13                     14                     15
                      A                      A                      A
 Frequencies --    799.4680               854.0969               892.0959
 Red. masses --      5.0844                 3.6236                 1.9800
 Frc consts  --      1.9146                 1.5574                 0.9284
 IR Inten    --     12.8204                17.0233                17.1569

                     16                     17                     18
                      A                      A                      A
 Frequencies --   1014.5577              1049.9402              1125.0762
 Red. masses --      2.0726                 2.1380                 3.6804
 Frc consts  --      1.2570                 1.3886                 2.7448
 IR Inten    --     80.4443                45.3177               189.9471

                     19                     20                     21
                      A                      A                      A
 Frequencies --   1150.8519              1266.5016              1283.6706
 Red. masses --      2.5583                 3.0172                 4.0232
 Frc consts  --      1.9964                 2.8514                 3.9059
 IR Inten    --    105.8729               143.8352               155.9856

                     22                     23                     24
                      A                      A                      A
 Frequencies --   1319.8436              1402.0890              1462.1231
 Red. masses --      1.5775                 1.7438                 1.2286
 Frc consts  --      1.6191                 2.0198                 1.5475
 IR Inten    --     65.3427                87.7864                52.3565

                     25                     26                     27
                      A                      A                      A
 Frequencies --   1493.5398              1521.3785              1538.4776
 Red. masses --      1.1038                 1.0713                 1.0476
 Frc consts  --      1.4507                 1.4609                 1.4609
 IR Inten    --     12.6984                27.1507                22.0952

                     28                     29                     30
                      A                      A                      A
 Frequencies --   1751.0109              3081.7800              3105.9460
 Red. masses --      9.1192                 1.0365                 1.0632
 Frc consts  --     16.4734                 5.7997                 6.0429
 IR Inten    --    159.5493                 0.4422                 0.7900

                     31                     32                     33
                      A                      A                      A
 Frequencies --   3161.5567              3182.2412              3202.9054
 Red. masses --      1.0973                 1.0980                 1.1017
 Frc consts  --      6.4624                 6.5511                 6.6587
 IR Inten    --      2.3280                 1.3289                 5.8095

 - Thermochemistry -
 -------------------
 Temperature   298.150 Kelvin.  Pressure   1.00000 Atm.
 Atom     1 has atomic number  6 and mass  12.00000

 Molecular mass:   126.02925 amu.
 Principal axes and moments of inertia in atomic units:
                           1         2         3
     Eigenvalues --   521.464921336.131261491.26218
           X            0.99938   0.03530   0.00039
           Y           -0.03526   0.99866  -0.03776
           Z           -0.00172   0.03773   0.99929
 This molecule is an asymmetric top.
 Rotational symmetry number  1.
 Warning -- assumption of classical behavior for rotation
           may cause significant error
 Rotational temperatures (Kelvin)      0.16610     0.06482     0.05808
 Rotational constants (GHZ):           3.46091     1.35072     1.21021
 Zero-point vibrational energy     239117.0 (Joules/Mol)
                                   57.15033 (Kcal/Mol)
 Warning -- explicit consideration of  11 degrees of freedom as
           vibrations may cause significant error
 Vibrational temperatures:     63.86   142.48   270.34   375.38   448.24
          (Kelvin)            489.03   552.54   673.15   705.43   738.24
                              826.41   927.65  1150.25  1228.85  1283.53
                             1459.72  1510.63  1618.73  1655.82  1822.21
                             1846.91  1898.96  2017.29  2103.67  2148.87
                             2188.92  2213.52  2519.31  4433.99  4468.76
                             4548.77  4578.53  4608.26

 Zero-point correction=                           0.091075 (Hartree/Particle)
 Thermal correction to Energy=                    0.099022
 Thermal correction to Enthalpy=                  0.099966
 Thermal correction to Gibbs Free Energy=         0.057807
 Sum of electronic and zero-point Energies=           -529.836809
 Sum of electronic and thermal Energies=              -529.828862
 Sum of electronic and thermal Enthalpies=            -529.827917
 Sum of electronic and thermal Free Energies=         -529.870077

                     E (Thermal)             CV                S
                      KCal/Mol        Cal/Mol-Kelvin    Cal/Mol-Kelvin
 Total                   62.137             27.890             88.732
 Electronic               0.000              0.000              0.000
 Translational            0.889              2.981             40.408
 Rotational               0.889              2.981             28.432
 Vibrational             60.360             21.928             19.893
 Vibration     1          0.595              1.980              5.053
 Vibration     2          0.604              1.950              3.473
 Vibration     3          0.633              1.856              2.248
 Vibration     4          0.669              1.744              1.656
 Vibration     5          0.700              1.652              1.354
 Vibration     6          0.720              1.596              1.213
 Vibration     7          0.753              1.504              1.023
 Vibration     8          0.825              1.321              0.744
 Vibration     9          0.846              1.272              0.683
 Vibration    10          0.868              1.221              0.626
 Vibration    11          0.931              1.087              0.496

 Optimization completed.
    -- Stationary point found.
 Normal termination of Gaussian 09 at Wed May 26 08:18:12 2021.
