 Gaussian 09, Revision D.01,
 Gaussian 09:  ES64L-G09RevD.01 24-Apr-2013

 -----------------------------
 #p wB97XD/6-31+G Opt=ModRedun
 -----------------------------

 -----
 L.pdb
 -----
 Symbolic Z-matrix:
 Charge =  0 Multiplicity = 1

 SCF Done:  E(RwB97XD) =  -191.786131493     A.U. after   14 cycles
 SCF Done:  E(RwB97XD) =  -191.786249693     A.U. after   12 cycles
 SCF Done:  E(RwB97XD) =  -191.786248635     A.U. after   11 cycles
 SCF Done:  E(RwB97XD) =  -191.786255243     A.U. after   12 cycles
 SCF Done:  E(RwB97XD) =  -191.786256491     A.U. after   11 cycles
 Optimization completed.
    -- Stationary point found.

                         Standard orientation:
 ---------------------------------------------------------------------
 Center     Atomic      Atomic             Coordinates (Angstroms)
 Number     Number       Type             X           Y           Z
 ---------------------------------------------------------------------
      1          6           0        1.698892    0.184994   -0.193620
      2          6           0        0.592815   -0.428807    0.241829
      3          6           0       -0.711466    0.276551    0.301050
      4          8           0       -1.706110   -0.101169   -0.325284
      5          1           0       -0.745121    1.223221    0.865022
      6          1           0        2.624002   -0.357658   -0.354695
      7          1           0        1.716940    1.251662   -0.404980
      8          1           0        0.571611   -1.504304    0.401369
 ---------------------------------------------------------------------

 The electronic state is 1-A.
 Alpha  occ. eigenvalues --  -19.29401 -10.41097 -10.33245 -10.33106  -1.17733
 Alpha  occ. eigenvalues --   -0.91502  -0.75933  -0.67767  -0.59009  -0.57178
 Alpha  occ. eigenvalues --   -0.53161  -0.49226  -0.47433  -0.37959  -0.35482
 Alpha virt. eigenvalues --   -0.00026   0.06397   0.07589   0.08840   0.08984
 Alpha virt. eigenvalues --    0.11175   0.12575   0.13060   0.14685   0.16322
 Alpha virt. eigenvalues --    0.17166   0.17810   0.19789   0.22701   0.27327

 Mulliken charges:
               1
     1  C   -0.381335
     2  C   -0.094792
     3  C    0.025026
     4  O   -0.383314
     5  H    0.184402
     6  H    0.209048
     7  H    0.203910
     8  H    0.237055
 Sum of Mulliken charges =   0.00000

 Dipole moment (field-independent basis, Debye):
    X=              3.0454    Y=              0.6849    Z=              1.1526  Tot=              3.3275
 Quadrupole moment (field-independent basis, Debye-Ang):
   XX=            -27.6767   YY=            -21.7558   ZZ=            -25.3021
   XY=             -1.0697   XZ=             -3.0917   YZ=             -0.5740

 Normal termination of Gaussian 09 at Wed May 12 11:58:35 2021.
