 Gaussian 09, Revision D.01,
 Gaussian 09:  ES64L-G09RevD.01 24-Apr-2013

 -----------------------------
 #p wB97XD/6-31+G Opt=ModRedun
 -----------------------------

 -----
 B.pdb
 -----
 Symbolic Z-matrix:
 Charge =  0 Multiplicity = 1

 SCF Done:  E(RwB97XD) =  -255.093871830     A.U. after   13 cycles
 SCF Done:  E(RwB97XD) =  -255.094023133     A.U. after   11 cycles
 SCF Done:  E(RwB97XD) =  -255.094041528     A.U. after   10 cycles
 SCF Done:  E(RwB97XD) =  -255.094045661     A.U. after   10 cycles
 Optimization completed.
    -- Stationary point found.

                         Standard orientation:
 ---------------------------------------------------------------------
 Center     Atomic      Atomic             Coordinates (Angstroms)
 Number     Number       Type             X           Y           Z
 ---------------------------------------------------------------------
      1          6           0       -1.210079    1.169322    0.009376
      2          6           0       -0.478168    0.064096    0.073203
      3          6           0        0.925006   -0.124928    0.482719
      4          6           0        1.963028    0.126728   -0.320900
      5          1           0       -2.256076    1.135434   -0.268368
      6          1           0       -0.758687    2.128968    0.226210
      7          9           0       -1.118607   -1.176675   -0.174901
      8          1           0        1.077589   -0.561208    1.467697
      9          1           0        1.822716    0.524613   -1.321595
     10          1           0        2.983201   -0.049042    0.003779
 ---------------------------------------------------------------------

 The electronic state is 1-A.
 Alpha  occ. eigenvalues --  -24.82783 -10.40117 -10.33080 -10.32126 -10.30899
 Alpha  occ. eigenvalues --   -1.30601  -0.92880  -0.86152  -0.73835  -0.65432
 Alpha  occ. eigenvalues --   -0.60800  -0.57487  -0.56389  -0.52523  -0.50631
 Alpha  occ. eigenvalues --   -0.48487  -0.45078  -0.38123  -0.35098
 Alpha virt. eigenvalues --    0.03870   0.06080   0.07746   0.08433   0.09550
 Alpha virt. eigenvalues --    0.11259   0.11797   0.13273   0.13934   0.14483
 Alpha virt. eigenvalues --    0.16270   0.17589   0.18197   0.18618   0.19617

 Mulliken charges:
               1
     1  C   -0.425988
     2  C    0.046609
     3  C   -0.030693
     4  C   -0.380283
     5  H    0.216808
     6  H    0.211934
     7  F   -0.273645
     8  H    0.228385
     9  H    0.208210
    10  H    0.198663
 Sum of Mulliken charges =   0.00000

 Dipole moment (field-independent basis, Debye):
    X=              1.4949    Y=              1.8062    Z=              0.3894  Tot=              2.3768
 Quadrupole moment (field-independent basis, Debye-Ang):
   XX=            -26.9766   YY=            -31.5933   ZZ=            -29.4582
   XY=             -2.9027   XZ=              0.0437   YZ=             -1.4129

 Normal termination of Gaussian 09 at Wed May 12 11:56:09 2021.
