 Gaussian 09, Revision D.01,
 Gaussian 09:  ES64L-G09RevD.01 24-Apr-2013

 -----------------------------
 #p wB97XD/6-31+G Opt=ModRedun
 -----------------------------

 -----
 N.pdb
 -----
 Symbolic Z-matrix:
 Charge =  0 Multiplicity = 1

 SCF Done:  E(RwB97XD) =  -529.927640855     A.U. after   15 cycles

 The electronic state is 1-A.
 Alpha  occ. eigenvalues --  -24.89288 -24.89277 -24.89118 -19.30181 -10.59551
 Alpha  occ. eigenvalues --  -10.43983 -10.36470 -10.31994  -1.44062  -1.35579
 Alpha  occ. eigenvalues --   -1.35519  -1.19435  -0.95261  -0.87230  -0.80272
 Alpha  occ. eigenvalues --   -0.71125  -0.70454  -0.69309  -0.64258  -0.59825
 Alpha  occ. eigenvalues --   -0.58475  -0.57730  -0.57071  -0.55104  -0.54211
 Alpha  occ. eigenvalues --   -0.53766  -0.52922  -0.52296  -0.50447  -0.49559
 Alpha  occ. eigenvalues --   -0.45966  -0.36965
 Alpha virt. eigenvalues --    0.01401   0.06249   0.08161   0.09541   0.10073
 Alpha virt. eigenvalues --    0.10643   0.11215   0.11617   0.12895   0.13403
 Alpha virt. eigenvalues --    0.13757   0.16047   0.16588   0.17542   0.17716

 Mulliken charges:
               1
     1  C   -0.798282
     2  C    0.497664
     3  H    0.257026
     4  H    0.250739
     5  H    0.260383
     6  C   -0.557618
     7  O   -0.402278
     8  C    0.499447
     9  H    0.297333
    10  H    0.296346
    11  F   -0.199665
    12  F   -0.206445
    13  F   -0.194652
 Sum of Mulliken charges =   0.00000

 Dipole moment (field-independent basis, Debye):
    X=              0.0336    Y=              0.6606    Z=             -0.8861  Tot=              1.1057
 Quadrupole moment (field-independent basis, Debye-Ang):
   XX=            -57.9658   YY=            -45.1431   ZZ=            -45.3549
   XY=              6.3630   XZ=             -0.7347   YZ=              0.7876

 Optimization completed.
    -- Stationary point found.

                         Standard orientation:
 ---------------------------------------------------------------------
 Center     Atomic      Atomic             Coordinates (Angstroms)
 Number     Number       Type             X           Y           Z
 ---------------------------------------------------------------------
      1          6           0        1.683531    1.267463   -0.023980
      2          6           0        1.549430   -0.226865   -0.044733
      3          1           0        1.328257    1.701080   -0.964812
      4          1           0        2.732438    1.524655    0.125549
      5          1           0        1.081754    1.704531    0.779380
      6          6           0        0.189077   -0.892738   -0.265306
      7          8           0        2.524717   -0.975204    0.073124
      8          6           0       -1.040165   -0.076609   -0.001474
      9          1           0        0.148280   -1.786128    0.363218
     10          1           0        0.144336   -1.229867   -1.307458
     11          9           0       -1.076293    0.437312    1.293389
     12          9           0       -2.189997   -0.841763   -0.159056
     13          9           0       -1.169715    1.011102   -0.864100
 ---------------------------------------------------------------------

 Normal termination of Gaussian 09 at Wed May 26 09:20:56 2021.
