 Gaussian 09, Revision D.01,
 Gaussian 09:  ES64L-G09RevD.01 24-Apr-2013

 -----------------------------
 #p wB97XD/6-31+G Opt=ModRedun
 -----------------------------

 -----
 L.pdb
 -----
 Symbolic Z-matrix:
 Charge =  0 Multiplicity = 1

 SCF Done:  E(RwB97XD) =  -191.782874953     A.U. after   14 cycles
 SCF Done:  E(RwB97XD) =  -191.782976948     A.U. after   12 cycles
 SCF Done:  E(RwB97XD) =  -191.782963170     A.U. after   12 cycles
 SCF Done:  E(RwB97XD) =  -191.782983036     A.U. after   12 cycles
 SCF Done:  E(RwB97XD) =  -191.782983453     A.U. after    9 cycles
 Optimization completed.
    -- Stationary point found.

                         Standard orientation:
 ---------------------------------------------------------------------
 Center     Atomic      Atomic             Coordinates (Angstroms)
 Number     Number       Type             X           Y           Z
 ---------------------------------------------------------------------
      1          6           0       -1.619423   -0.377327    0.069085
      2          6           0       -0.633471    0.487413   -0.184407
      3          6           0        0.763685    0.311789    0.296461
      4          8           0        1.598368   -0.423806   -0.236328
      5          1           0        1.057223    0.927963    1.162936
      6          1           0       -2.634794   -0.189660   -0.263330
      7          1           0       -1.442167   -1.305417    0.604963
      8          1           0       -0.831949    1.426314   -0.700779
 ---------------------------------------------------------------------

 The electronic state is 1-A.
 Alpha  occ. eigenvalues --  -19.29674 -10.41252 -10.33167 -10.32487  -1.17927
 Alpha  occ. eigenvalues --   -0.91047  -0.76592  -0.66315  -0.60577  -0.55863
 Alpha  occ. eigenvalues --   -0.54094  -0.48884  -0.46951  -0.37796  -0.35452
 Alpha virt. eigenvalues --    0.01587   0.04467   0.07577   0.08435   0.09401
 Alpha virt. eigenvalues --    0.11039   0.12453   0.13411   0.14685   0.16637
 Alpha virt. eigenvalues --    0.17191   0.17771   0.19422   0.22436   0.27410

 Mulliken charges:
               1
     1  C   -0.389874
     2  C   -0.096607
     3  C    0.040920
     4  O   -0.380155
     5  H    0.184269
     6  H    0.202398
     7  H    0.208733
     8  H    0.230315
 Sum of Mulliken charges =   0.00000

 Dipole moment (field-independent basis, Debye):
    X=             -2.5409    Y=              1.6518    Z=              1.1018  Tot=              3.2247
 Quadrupole moment (field-independent basis, Debye-Ang):
   XX=            -26.5982   YY=            -22.8179   ZZ=            -24.5406
   XY=              2.9146   XZ=              2.1427   YZ=             -1.6434

 Normal termination of Gaussian 09 at Wed May 12 11:58:36 2021.
