 Gaussian 09, Revision D.01,
 Gaussian 09:  ES64L-G09RevD.01 24-Apr-2013

 --------------------------------
 #p B3LYP/6-31+G Opt Freq=NoRaman
 --------------------------------

 -----
 L.pdb
 -----
 Symbolic Z-matrix:
 Charge =  0 Multiplicity = 1

 SCF Done:  E(RB3LYP) =  -191.777464827     A.U. after   13 cycles
 SCF Done:  E(RB3LYP) =  -191.835636754     A.U. after   12 cycles
 SCF Done:  E(RB3LYP) =  -191.822064549     A.U. after   12 cycles
 SCF Done:  E(RB3LYP) =  -191.865729477     A.U. after   11 cycles
 SCF Done:  E(RB3LYP) =  -191.868549061     A.U. after   11 cycles
 SCF Done:  E(RB3LYP) =  -191.868737725     A.U. after   11 cycles
 SCF Done:  E(RB3LYP) =  -191.868718946     A.U. after   11 cycles
 SCF Done:  E(RB3LYP) =  -191.868746727     A.U. after   10 cycles
 SCF Done:  E(RB3LYP) =  -191.868754884     A.U. after    9 cycles
 Optimization completed.
    -- Stationary point found.
 Normal termination of Gaussian 09 at Tue May 11 16:35:45 2021.

 ------------------------------------------------------------------
 #P Geom=AllCheck Guess=TCheck SCRF=Check GenChk RB3LYP/6-31+G Freq
 ------------------------------------------------------------------

 Structure from the checkpoint file:  "/home/unibas/boittier/RDKit_G2/L.pdb/OPT_B3LYP_6-31+G/L.pdb.chk"
 -----
 L.pdb
 -----
 Charge =  0 Multiplicity = 1

                         Standard orientation:
 ---------------------------------------------------------------------
 Center     Atomic      Atomic             Coordinates (Angstroms)
 Number     Number       Type             X           Y           Z
 ---------------------------------------------------------------------
      1          6           0       -1.776099    0.135275   -0.000002
      2          6           0       -0.561588   -0.443715    0.000001
      3          6           0        0.667641    0.358692    0.000011
      4          8           0        1.813397   -0.125813   -0.000004
      5          1           0        0.529453    1.455413   -0.000020
      6          1           0       -2.693113   -0.444769   -0.000004
      7          1           0       -1.886924    1.218085    0.000000
      8          1           0       -0.436324   -1.523729   -0.000002
 ---------------------------------------------------------------------

 SCF Done:  E(RB3LYP) =  -191.868754884     A.U. after    1 cycles

 The electronic state is 1-A.
 Alpha  occ. eigenvalues --  -19.16760 -10.29478 -10.23230 -10.22519  -1.06684
 Alpha  occ. eigenvalues --   -0.82277  -0.66845  -0.59181  -0.49768  -0.49058
 Alpha  occ. eigenvalues --   -0.42890  -0.41141  -0.40888  -0.30697  -0.27321
 Alpha virt. eigenvalues --   -0.08921   0.00528   0.01318   0.01944   0.03264
 Alpha virt. eigenvalues --    0.06015   0.06096   0.06618   0.09149   0.09291
 Alpha virt. eigenvalues --    0.11555   0.12418   0.13585   0.15998   0.18911

 Mulliken charges:
               1
     1  C   -0.462381
     2  C    0.145894
     3  C    0.005355
     4  O   -0.436259
     5  H    0.162125
     6  H    0.190533
     7  H    0.187062
     8  H    0.207671
 Sum of Mulliken charges =   0.00000

 Dipole moment (field-independent basis, Debye):
    X=             -3.7455    Y=              0.8110    Z=              0.0000  Tot=              3.8323
 Quadrupole moment (field-independent basis, Debye-Ang):
   XX=            -28.4444   YY=            -22.0679   ZZ=            -25.5159
   XY=              1.1727   XZ=              0.0000   YZ=              0.0000

  Exact polarizability:  62.970  -5.900  35.502   0.000   0.000  22.489
 Approx polarizability: 105.530 -17.831  47.635   0.000   0.000  26.492

                      1                      2                      3
                      A                      A                      A
 Frequencies --    181.9274               327.7299               577.1786
 Red. masses --      3.4230                 2.7410                 4.9542
 Frc consts  --      0.0668                 0.1735                 0.9724
 IR Inten    --      5.7066                10.7049                 7.0786

                      4                      5                      6
                      A                      A                      A
 Frequencies --    621.3795               949.4855              1017.6887
 Red. masses --      1.1741                 1.6372                 1.4305
 Frc consts  --      0.2671                 0.8696                 0.8729
 IR Inten    --     14.2916                24.0187                41.5408

                      7                      8                      9
                      A                      A                      A
 Frequencies --   1038.5956              1049.5107              1206.2455
 Red. masses --      1.2425                 1.4277                 2.1550
 Frc consts  --      0.7897                 0.9265                 1.8474
 IR Inten    --     44.1569                 0.0010                33.1198

                     10                     11                     12
                      A                      A                      A
 Frequencies --   1329.2388              1407.9315              1484.3926
 Red. masses --      1.4038                 1.1847                 1.2645
 Frc consts  --      1.4614                 1.3837                 1.6416
 IR Inten    --      2.0149                 8.1328                 5.4635

                     13                     14                     15
                      A                      A                      A
 Frequencies --   1657.8873              1698.8455              2971.9362
 Red. masses --      5.7901                 4.4126                 1.0847
 Frc consts  --      9.3766                 7.5032                 5.6446
 IR Inten    --    134.2964               103.3612                78.1635

                     16                     17                     18
                      A                      A                      A
 Frequencies --   3161.8515              3201.2808              3259.1650
 Red. masses --      1.0612                 1.0933                 1.1136
 Frc consts  --      6.2509                 6.6013                 6.9696
 IR Inten    --      5.9506                 2.1314                 8.6889

 - Thermochemistry -
 -------------------
 Temperature   298.150 Kelvin.  Pressure   1.00000 Atm.
 Atom     1 has atomic number  6 and mass  12.00000

 Molecular mass:    56.02621 amu.
 Principal axes and moments of inertia in atomic units:
                           1         2         3
     Eigenvalues --    37.63633 394.98292 432.61925
           X            1.00000   0.00275   0.00000
           Y           -0.00275   1.00000   0.00000
           Z            0.00000   0.00000   1.00000
 This molecule is an asymmetric top.
 Rotational symmetry number  1.
 Rotational temperatures (Kelvin)      2.30134     0.21928     0.20021
 Rotational constants (GHZ):          47.95211     4.56916     4.17166
 Zero-point vibrational energy     162346.8 (Joules/Mol)
                                   38.80182 (Kcal/Mol)
 Warning -- explicit consideration of   3 degrees of freedom as
           vibrations may cause significant error
 Vibrational temperatures:    261.75   471.53   830.43   894.03  1366.10
          (Kelvin)           1464.23  1494.31  1510.01  1735.52  1912.48
                             2025.70  2135.71  2385.33  2444.26  4275.95
                             4549.19  4605.92  4689.21

 Zero-point correction=                           0.061835 (Hartree/Particle)
 Thermal correction to Energy=                    0.066150
 Thermal correction to Enthalpy=                  0.067094
 Thermal correction to Gibbs Free Energy=         0.035584
 Sum of electronic and zero-point Energies=           -191.806920
 Sum of electronic and thermal Energies=              -191.802605
 Sum of electronic and thermal Enthalpies=            -191.801661
 Sum of electronic and thermal Free Energies=         -191.833171

                     E (Thermal)             CV                S
                      KCal/Mol        Cal/Mol-Kelvin    Cal/Mol-Kelvin
 Total                   41.510             13.568             66.319
 Electronic               0.000              0.000              0.000
 Translational            0.889              2.981             37.991
 Rotational               0.889              2.981             23.379
 Vibrational             39.732              7.606              4.949
 Vibration     1          0.630              1.864              2.309
 Vibration     2          0.711              1.620              1.271
 Vibration     3          0.934              1.081              0.491

 Optimization completed.
    -- Stationary point found.
 Normal termination of Gaussian 09 at Tue May 11 16:36:22 2021.
