 Gaussian 09, Revision D.01,
 Gaussian 09:  ES64L-G09RevD.01 24-Apr-2013

 -----------------------------
 #p wB97XD/6-31+G Opt=ModRedun
 -----------------------------

 -----
 B.pdb
 -----
 Symbolic Z-matrix:
 Charge =  0 Multiplicity = 1

 SCF Done:  E(RwB97XD) =  -255.098258481     A.U. after   13 cycles
 SCF Done:  E(RwB97XD) =  -255.098428251     A.U. after   11 cycles
 SCF Done:  E(RwB97XD) =  -255.098447082     A.U. after   10 cycles
 SCF Done:  E(RwB97XD) =  -255.098450622     A.U. after   10 cycles
 Optimization completed.
    -- Stationary point found.

                         Standard orientation:
 ---------------------------------------------------------------------
 Center     Atomic      Atomic             Coordinates (Angstroms)
 Number     Number       Type             X           Y           Z
 ---------------------------------------------------------------------
      1          6           0       -0.908819    1.307507    0.092865
      2          6           0       -0.466501    0.053844    0.051714
      3          6           0        0.879111   -0.484687    0.262385
      4          6           0        1.993861    0.102183   -0.190094
      5          1           0       -1.950468    1.540186   -0.086388
      6          1           0       -0.225656    2.116786    0.316916
      7          9           0       -1.407630   -0.977340   -0.173800
      8          1           0        0.925323   -1.428349    0.799460
      9          1           0        1.962010    1.017211   -0.774528
     10          1           0        2.971549   -0.322855    0.007519
 ---------------------------------------------------------------------

 The electronic state is 1-A.
 Alpha  occ. eigenvalues --  -24.83037 -10.40267 -10.33130 -10.32039 -10.31041
 Alpha  occ. eigenvalues --   -1.31006  -0.93176  -0.85918  -0.74453  -0.65210
 Alpha  occ. eigenvalues --   -0.61413  -0.57859  -0.55511  -0.52948  -0.50640
 Alpha  occ. eigenvalues --   -0.48494  -0.45537  -0.40292  -0.33601
 Alpha virt. eigenvalues --    0.01949   0.07340   0.08215   0.08781   0.10172
 Alpha virt. eigenvalues --    0.11271   0.12187   0.13239   0.14195   0.15205
 Alpha virt. eigenvalues --    0.16667   0.17610   0.18246   0.19027   0.20377

 Mulliken charges:
               1
     1  C   -0.419971
     2  C    0.089767
     3  C   -0.007166
     4  C   -0.422423
     5  H    0.218377
     6  H    0.207546
     7  F   -0.296854
     8  H    0.229767
     9  H    0.201251
    10  H    0.199707
 Sum of Mulliken charges =   0.00000

 Dipole moment (field-independent basis, Debye):
    X=              1.8620    Y=              1.4898    Z=              0.3634  Tot=              2.4121
 Quadrupole moment (field-independent basis, Debye-Ang):
   XX=            -28.4379   YY=            -28.4741   ZZ=            -31.7029
   XY=             -2.9549   XZ=             -0.2344   YZ=             -1.6612

 Normal termination of Gaussian 09 at Wed May 12 11:56:09 2021.
