 Gaussian 09, Revision D.01,
 Gaussian 09:  ES64L-G09RevD.01 24-Apr-2013

 -----------------------------
 #p wB97XD/6-31+G Opt=ModRedun
 -----------------------------

 -----
 L.pdb
 -----
 Symbolic Z-matrix:
 Charge =  0 Multiplicity = 1

 SCF Done:  E(RwB97XD) =  -191.790905733     A.U. after   13 cycles
 SCF Done:  E(RwB97XD) =  -191.791027578     A.U. after   12 cycles
 SCF Done:  E(RwB97XD) =  -191.791025461     A.U. after   11 cycles
 SCF Done:  E(RwB97XD) =  -191.791034220     A.U. after   11 cycles
 SCF Done:  E(RwB97XD) =  -191.791035089     A.U. after   10 cycles
 Optimization completed.
    -- Stationary point found.

                         Standard orientation:
 ---------------------------------------------------------------------
 Center     Atomic      Atomic             Coordinates (Angstroms)
 Number     Number       Type             X           Y           Z
 ---------------------------------------------------------------------
      1          6           0        1.733674    0.153988   -0.139357
      2          6           0        0.575730   -0.434461    0.186812
      3          6           0       -0.686108    0.331316    0.197047
      4          8           0       -1.758292   -0.124280   -0.214660
      5          1           0       -0.618536    1.386451    0.511754
      6          1           0        2.648606   -0.413889   -0.267324
      7          1           0        1.802680    1.228913   -0.292111
      8          1           0        0.493808   -1.512297    0.297950
 ---------------------------------------------------------------------

 The electronic state is 1-A.
 Alpha  occ. eigenvalues --  -19.29071 -10.40834 -10.33637 -10.33285  -1.17412
 Alpha  occ. eigenvalues --   -0.91870  -0.75929  -0.68096  -0.58606  -0.57476
 Alpha  occ. eigenvalues --   -0.52395  -0.49430  -0.48124  -0.38108  -0.35412
 Alpha virt. eigenvalues --   -0.00717   0.06907   0.07792   0.08890   0.09084
 Alpha virt. eigenvalues --    0.11455   0.12681   0.12883   0.14724   0.15889
 Alpha virt. eigenvalues --    0.17420   0.18050   0.20078   0.22630   0.26848

 Mulliken charges:
               1
     1  C   -0.428988
     2  C   -0.024351
     3  C    0.026832
     4  O   -0.408684
     5  H    0.181195
     6  H    0.211308
     7  H    0.205095
     8  H    0.237592
 Sum of Mulliken charges =   0.00000

 Dipole moment (field-independent basis, Debye):
    X=              3.4245    Y=              0.8303    Z=              0.6954  Tot=              3.5917
 Quadrupole moment (field-independent basis, Debye-Ang):
   XX=            -27.9676   YY=            -21.6971   ZZ=            -25.3287
   XY=             -1.2084   XZ=             -2.1937   YZ=             -0.3843

 Normal termination of Gaussian 09 at Wed May 12 11:58:35 2021.
