 Gaussian 09, Revision D.01,
 Gaussian 09:  ES64L-G09RevD.01 24-Apr-2013

 -----------------------------
 #p wB97XD/6-31+G Opt=ModRedun
 -----------------------------

 -----
 L.pdb
 -----
 Symbolic Z-matrix:
 Charge =  0 Multiplicity = 1

 SCF Done:  E(RwB97XD) =  -191.795575475     A.U. after   13 cycles
 SCF Done:  E(RwB97XD) =  -191.795694546     A.U. after   11 cycles
 SCF Done:  E(RwB97XD) =  -191.795700730     A.U. after   11 cycles
 SCF Done:  E(RwB97XD) =  -191.795701058     A.U. after   10 cycles
 SCF Done:  E(RwB97XD) =  -191.795701008     A.U. after    9 cycles
 Optimization completed.
    -- Stationary point found.

                         Standard orientation:
 ---------------------------------------------------------------------
 Center     Atomic      Atomic             Coordinates (Angstroms)
 Number     Number       Type             X           Y           Z
 ---------------------------------------------------------------------
      1          6           0        1.768920    0.137071    0.000063
      2          6           0        0.562226   -0.445460    0.000213
      3          6           0       -0.668379    0.358282   -0.000259
      4          8           0       -1.805760   -0.126051   -0.000129
      5          1           0       -0.531078    1.453570    0.000688
      6          1           0        2.687034   -0.439854    0.000155
      7          1           0        1.874493    1.220076   -0.000201
      8          1           0        0.439036   -1.524738    0.000289
 ---------------------------------------------------------------------

 The electronic state is 1-A.
 Alpha  occ. eigenvalues --  -19.28844 -10.40595 -10.33992 -10.33285  -1.17173
 Alpha  occ. eigenvalues --   -0.92096  -0.75983  -0.68272  -0.58434  -0.57599
 Alpha  occ. eigenvalues --   -0.51324  -0.49848  -0.48873  -0.38219  -0.35365
 Alpha virt. eigenvalues --   -0.01289   0.06949   0.08346   0.08520   0.09262
 Alpha virt. eigenvalues --    0.12063   0.12470   0.12738   0.14872   0.15493
 Alpha virt. eigenvalues --    0.17736   0.18818   0.20196   0.22091   0.26120

 Mulliken charges:
               1
     1  C   -0.482829
     2  C    0.071269
     3  C    0.010309
     4  O   -0.434871
     5  H    0.181128
     6  H    0.211476
     7  H    0.205063
     8  H    0.238456
 Sum of Mulliken charges =   0.00000

 Dipole moment (field-independent basis, Debye):
    X=              3.7292    Y=              0.8767    Z=              0.0003  Tot=              3.8309
 Quadrupole moment (field-independent basis, Debye-Ang):
   XX=            -28.1624   YY=            -21.6456   ZZ=            -25.3829
   XY=             -1.1841   XZ=             -0.0009   YZ=             -0.0002

 Normal termination of Gaussian 09 at Wed May 12 11:58:34 2021.
