 Gaussian 09, Revision D.01,
 Gaussian 09:  ES64L-G09RevD.01 24-Apr-2013

 -----------------------------
 #p wB97XD/6-31+G Opt=ModRedun
 -----------------------------

 -----
 O.pdb
 -----
 Symbolic Z-matrix:
 Charge =  0 Multiplicity = 1

 SCF Done:  E(RwB97XD) =  -268.205107337     A.U. after   14 cycles

 The electronic state is 1-A.
 Alpha  occ. eigenvalues --  -19.31813 -19.27629 -10.45249 -10.36972 -10.32118
 Alpha  occ. eigenvalues --   -1.21678  -1.14003  -0.87211  -0.83680  -0.67100
 Alpha  occ. eigenvalues --   -0.60434  -0.58988  -0.57573  -0.53788  -0.51812
 Alpha  occ. eigenvalues --   -0.50819  -0.47692  -0.42844  -0.38652  -0.36384
 Alpha virt. eigenvalues --    0.05055   0.06368   0.07673   0.09172   0.09518
 Alpha virt. eigenvalues --    0.11982   0.12550   0.12903   0.14400   0.14825
 Alpha virt. eigenvalues --    0.16685   0.17110   0.19345   0.21157   0.23532

 Mulliken charges:
               1
     1  C   -0.694188
     2  C    0.418095
     3  H    0.247672
     4  H    0.255135
     5  H    0.231456
     6  O   -0.310935
     7  O   -0.398936
     8  C   -0.396339
     9  H    0.213877
    10  H    0.234438
    11  H    0.199723
 Sum of Mulliken charges =   0.00000

 Dipole moment (field-independent basis, Debye):
    X=             -2.9971    Y=              4.1250    Z=              0.5785  Tot=              5.1315
 Quadrupole moment (field-independent basis, Debye-Ang):
   XX=            -29.9875   YY=            -33.0203   ZZ=            -30.0416
   XY=              3.2880   XZ=             -1.6418   YZ=             -0.4246

 Optimization completed.
    -- Stationary point found.

                         Standard orientation:
 ---------------------------------------------------------------------
 Center     Atomic      Atomic             Coordinates (Angstroms)
 Number     Number       Type             X           Y           Z
 ---------------------------------------------------------------------
      1          6           0        0.790683    1.322575   -0.038143
      2          6           0        0.596142   -0.171880   -0.014575
      3          1           0        0.418857    1.737017   -0.980377
      4          1           0        1.853780    1.538264    0.062488
      5          1           0        0.255030    1.813016    0.781836
      6          8           0       -0.665195   -0.636506   -0.328530
      7          8           0        1.500021   -0.978878    0.152732
      8          6           0       -1.846984    0.054272    0.168986
      9          1           0       -1.827871    0.100630    1.261130
     10          1           0       -2.685462   -0.554856   -0.160556
     11          1           0       -1.931984    1.059200   -0.255744
 ---------------------------------------------------------------------

 Normal termination of Gaussian 09 at Wed May 26 09:01:17 2021.
