 Gaussian 09, Revision D.01,
 Gaussian 09:  ES64L-G09RevD.01 24-Apr-2013

 -----------------------------
 #p wB97XD/6-31+G Opt=ModRedun
 -----------------------------

 -----
 L.pdb
 -----
 Symbolic Z-matrix:
 Charge =  0 Multiplicity = 1

 SCF Done:  E(RwB97XD) =  -191.792375876     A.U. after   14 cycles
 SCF Done:  E(RwB97XD) =  -191.792498123     A.U. after   12 cycles
 SCF Done:  E(RwB97XD) =  -191.792502207     A.U. after   11 cycles
 SCF Done:  E(RwB97XD) =  -191.792502262     A.U. after   10 cycles
 SCF Done:  E(RwB97XD) =  -191.792502486     A.U. after    9 cycles
 Optimization completed.
    -- Stationary point found.

                         Standard orientation:
 ---------------------------------------------------------------------
 Center     Atomic      Atomic             Coordinates (Angstroms)
 Number     Number       Type             X           Y           Z
 ---------------------------------------------------------------------
      1          6           0        1.479955   -0.466976    0.037707
      2          6           0        0.664631    0.591871   -0.065213
      3          6           0       -0.800375    0.468517    0.071603
      4          8           0       -1.426269   -0.590750   -0.065538
      5          1           0       -1.346587    1.398128    0.292810
      6          1           0        2.557451   -0.366626   -0.035250
      7          1           0        1.075813   -1.462964    0.195928
      8          1           0        1.058212    1.596996   -0.193771
 ---------------------------------------------------------------------

 The electronic state is 1-A.
 Alpha  occ. eigenvalues --  -19.28687 -10.40451 -10.33196 -10.32851  -1.16954
 Alpha  occ. eigenvalues --   -0.91001  -0.76975  -0.65141  -0.61529  -0.54494
 Alpha  occ. eigenvalues --   -0.52661  -0.49150  -0.47722  -0.37677  -0.35237
 Alpha virt. eigenvalues --   -0.01422   0.06978   0.08170   0.09563   0.10337
 Alpha virt. eigenvalues --    0.11701   0.12622   0.13199   0.15026   0.16043
 Alpha virt. eigenvalues --    0.17597   0.18015   0.20262   0.22219   0.26113

 Mulliken charges:
               1
     1  C   -0.444122
     2  C   -0.026589
     3  C    0.074300
     4  O   -0.435501
     5  H    0.178199
     6  H    0.205477
     7  H    0.234124
     8  H    0.214112
 Sum of Mulliken charges =   0.00000

 Dipole moment (field-independent basis, Debye):
    X=              2.5420    Y=              1.9947    Z=              0.3237  Tot=              3.2474
 Quadrupole moment (field-independent basis, Debye-Ang):
   XX=            -24.8926   YY=            -22.4787   ZZ=            -25.2860
   XY=             -3.6984   XZ=             -0.5335   YZ=             -0.4994

 Normal termination of Gaussian 09 at Wed May 12 11:58:35 2021.
