 Gaussian 09, Revision D.01,
 Gaussian 09:  ES64L-G09RevD.01 24-Apr-2013

 -----------------------------
 #p wB97XD/6-31+G Opt=ModRedun
 -----------------------------

 -----
 L.pdb
 -----
 Symbolic Z-matrix:
 Charge =  0 Multiplicity = 1

 SCF Done:  E(RwB97XD) =  -191.792368583     A.U. after   14 cycles
 SCF Done:  E(RwB97XD) =  -191.792496674     A.U. after   12 cycles
 SCF Done:  E(RwB97XD) =  -191.792496964     A.U. after   11 cycles
 SCF Done:  E(RwB97XD) =  -191.792501165     A.U. after   11 cycles
 SCF Done:  E(RwB97XD) =  -191.792502356     A.U. after   11 cycles
 Optimization completed.
    -- Stationary point found.

                         Standard orientation:
 ---------------------------------------------------------------------
 Center     Atomic      Atomic             Coordinates (Angstroms)
 Number     Number       Type             X           Y           Z
 ---------------------------------------------------------------------
      1          6           0       -1.480038   -0.466921    0.037723
      2          6           0       -0.664550    0.591767   -0.065269
      3          6           0        0.800333    0.468530    0.071531
      4          8           0        1.426347   -0.590726   -0.065541
      5          1           0        1.346546    1.397957    0.293345
      6          1           0       -2.557508   -0.366325   -0.035218
      7          1           0       -1.076150   -1.462983    0.196094
      8          1           0       -1.058126    1.596907   -0.193809
 ---------------------------------------------------------------------

 The electronic state is 1-A.
 Alpha  occ. eigenvalues --  -19.28686 -10.40450 -10.33197 -10.32850  -1.16951
 Alpha  occ. eigenvalues --   -0.91003  -0.76977  -0.65142  -0.61530  -0.54495
 Alpha  occ. eigenvalues --   -0.52662  -0.49149  -0.47721  -0.37678  -0.35237
 Alpha virt. eigenvalues --   -0.01423   0.06978   0.08170   0.09564   0.10337
 Alpha virt. eigenvalues --    0.11701   0.12622   0.13199   0.15025   0.16043
 Alpha virt. eigenvalues --    0.17597   0.18015   0.20262   0.22218   0.26113

 Mulliken charges:
               1
     1  C   -0.444071
     2  C   -0.026591
     3  C    0.074248
     4  O   -0.435501
     5  H    0.178215
     6  H    0.205476
     7  H    0.234122
     8  H    0.214103
 Sum of Mulliken charges =   0.00000

 Dipole moment (field-independent basis, Debye):
    X=             -2.5427    Y=              1.9948    Z=              0.3241  Tot=              3.2480
 Quadrupole moment (field-independent basis, Debye-Ang):
   XX=            -24.8926   YY=            -22.4790   ZZ=            -25.2856
   XY=              3.6986   XZ=              0.5335   YZ=             -0.4994

 Normal termination of Gaussian 09 at Wed May 12 11:58:35 2021.
