 Gaussian 09, Revision D.01,
 Gaussian 09:  ES64L-G09RevD.01 24-Apr-2013

 -----------------------------
 #p wB97XD/6-31+G Opt=ModRedun
 -----------------------------

 -----
 N.pdb
 -----
 Symbolic Z-matrix:
 Charge =  0 Multiplicity = 1

 SCF Done:  E(RwB97XD) =  -529.924248568     A.U. after   15 cycles

 The electronic state is 1-A.
 Alpha  occ. eigenvalues --  -24.88416 -24.88352 -24.88228 -19.30371 -10.58993
 Alpha  occ. eigenvalues --  -10.43866 -10.36321 -10.32587  -1.43244  -1.34752
 Alpha  occ. eigenvalues --   -1.34648  -1.19584  -0.94960  -0.87783  -0.79382
 Alpha  occ. eigenvalues --   -0.70622  -0.69590  -0.68696  -0.63806  -0.59319
 Alpha  occ. eigenvalues --   -0.58570  -0.56562  -0.56475  -0.55684  -0.53666
 Alpha  occ. eigenvalues --   -0.53288  -0.51791  -0.51677  -0.50708  -0.49447
 Alpha  occ. eigenvalues --   -0.46399  -0.36842
 Alpha virt. eigenvalues --    0.01052   0.05282   0.07848   0.09334   0.09767
 Alpha virt. eigenvalues --    0.10248   0.11445   0.12293   0.12401   0.12868
 Alpha virt. eigenvalues --    0.14920   0.15628   0.16280   0.16905   0.17727

 Mulliken charges:
               1
     1  C   -0.749864
     2  C    0.449920
     3  H    0.249182
     4  H    0.252467
     5  H    0.235562
     6  C   -0.499534
     7  O   -0.381541
     8  C    0.462770
     9  H    0.263341
    10  H    0.293214
    11  F   -0.191879
    12  F   -0.209039
    13  F   -0.174600
 Sum of Mulliken charges =   0.00000

 Dipole moment (field-independent basis, Debye):
    X=              2.3651    Y=             -3.5000    Z=             -2.0470  Tot=              4.6940
 Quadrupole moment (field-independent basis, Debye-Ang):
   XX=            -47.4227   YY=            -49.9480   ZZ=            -44.1149
   XY=             -6.2114   XZ=             -0.5008   YZ=              0.1275

 Optimization completed.
    -- Stationary point found.

                         Standard orientation:
 ---------------------------------------------------------------------
 Center     Atomic      Atomic             Coordinates (Angstroms)
 Number     Number       Type             X           Y           Z
 ---------------------------------------------------------------------
      1          6           0        2.514408   -0.858607    0.124896
      2          6           0        1.466469    0.170111   -0.187155
      3          1           0        2.121039   -1.584830    0.846685
      4          1           0        3.400484   -0.376551    0.538712
      5          1           0        2.787037   -1.413024   -0.781293
      6          6           0        0.173845   -0.344448   -0.829501
      7          8           0        1.623940    1.373119    0.024617
      8          6           0       -1.055770   -0.062895   -0.009206
      9          1           0        0.218992   -1.424047   -0.986222
     10          1           0        0.044939    0.142084   -1.801107
     11          9           0       -0.936381   -0.584298    1.280334
     12          9           0       -2.176132   -0.667850   -0.579522
     13          9           0       -1.349455    1.279531    0.120531
 ---------------------------------------------------------------------

 Normal termination of Gaussian 09 at Wed May 26 09:20:53 2021.
