 Gaussian 09, Revision D.01,
 Gaussian 09:  ES64L-G09RevD.01 24-Apr-2013

 -----------------------------
 #p wB97XD/6-31+G Opt=ModRedun
 -----------------------------

 -----
 B.pdb
 -----
 Symbolic Z-matrix:
 Charge =  0 Multiplicity = 1

 SCF Done:  E(RwB97XD) =  -255.093650018     A.U. after   13 cycles
 SCF Done:  E(RwB97XD) =  -255.093804371     A.U. after   11 cycles
 SCF Done:  E(RwB97XD) =  -255.093822141     A.U. after   11 cycles
 SCF Done:  E(RwB97XD) =  -255.093824455     A.U. after   10 cycles
 Optimization completed.
    -- Stationary point found.

                         Standard orientation:
 ---------------------------------------------------------------------
 Center     Atomic      Atomic             Coordinates (Angstroms)
 Number     Number       Type             X           Y           Z
 ---------------------------------------------------------------------
      1          6           0       -1.542406   -0.855803   -0.232225
      2          6           0       -0.512062   -0.089440    0.108067
      3          6           0        0.883455   -0.475567    0.386346
      4          6           0        1.927340   -0.013929   -0.310147
      5          1           0       -2.511800   -0.428074   -0.453615
      6          1           0       -1.425467   -1.931202   -0.282050
      7          9           0       -0.707915    1.313200    0.117359
      8          1           0        1.026747   -1.226578    1.159807
      9          1           0        1.807341    0.723976   -1.097374
     10          1           0        2.936448   -0.348489   -0.095243
 ---------------------------------------------------------------------

 The electronic state is 1-A.
 Alpha  occ. eigenvalues --  -24.82824 -10.40134 -10.32965 -10.31831 -10.30818
 Alpha  occ. eigenvalues --   -1.30688  -0.92686  -0.86320  -0.73204  -0.66097
 Alpha  occ. eigenvalues --   -0.60166  -0.58203  -0.55598  -0.52353  -0.50688
 Alpha  occ. eigenvalues --   -0.48459  -0.45178  -0.39250  -0.33856
 Alpha virt. eigenvalues --    0.02668   0.06640   0.08086   0.08927   0.09964
 Alpha virt. eigenvalues --    0.11506   0.11849   0.13330   0.13760   0.14366
 Alpha virt. eigenvalues --    0.15773   0.17248   0.18088   0.18885   0.20092

 Mulliken charges:
               1
     1  C   -0.425726
     2  C    0.133535
     3  C   -0.114830
     4  C   -0.359565
     5  H    0.218081
     6  H    0.208348
     7  F   -0.297593
     8  H    0.224915
     9  H    0.214413
    10  H    0.198422
 Sum of Mulliken charges =   0.00000

 Dipole moment (field-independent basis, Debye):
    X=              0.8701    Y=             -2.1069    Z=             -0.2030  Tot=              2.2885
 Quadrupole moment (field-independent basis, Debye-Ang):
   XX=            -25.5323   YY=            -31.2507   ZZ=            -30.5187
   XY=              1.5297   XZ=              0.5126   YZ=             -1.7874

 Normal termination of Gaussian 09 at Wed May 12 11:56:25 2021.
