 Gaussian 09, Revision D.01,
 Gaussian 09:  ES64L-G09RevD.01 24-Apr-2013

 -----------------------------
 #p wB97XD/6-31+G Opt=ModRedun
 -----------------------------

 -----
 N.pdb
 -----
 Symbolic Z-matrix:
 Charge =  0 Multiplicity = 1

 SCF Done:  E(RwB97XD) =  -529.925268147     A.U. after   15 cycles

 The electronic state is 1-A.
 Alpha  occ. eigenvalues --  -24.88754 -24.88667 -24.88547 -19.30474 -10.59295
 Alpha  occ. eigenvalues --  -10.43848 -10.36284 -10.32414  -1.43563  -1.35042
 Alpha  occ. eigenvalues --   -1.35003  -1.19598  -0.95090  -0.87613  -0.79594
 Alpha  occ. eigenvalues --   -0.70839  -0.69876  -0.68865  -0.64010  -0.59381
 Alpha  occ. eigenvalues --   -0.58462  -0.56926  -0.56632  -0.55735  -0.53846
 Alpha  occ. eigenvalues --   -0.53439  -0.52142  -0.51506  -0.50977  -0.49588
 Alpha  occ. eigenvalues --   -0.46401  -0.36921
 Alpha virt. eigenvalues --    0.00860   0.05336   0.07840   0.09333   0.09868
 Alpha virt. eigenvalues --    0.10495   0.11303   0.12384   0.12540   0.12797
 Alpha virt. eigenvalues --    0.15009   0.15841   0.16163   0.16574   0.17446

 Mulliken charges:
               1
     1  C   -0.717909
     2  C    0.385767
     3  H    0.252278
     4  H    0.251592
     5  H    0.239184
     6  C   -0.510685
     7  O   -0.372034
     8  C    0.496527
     9  H    0.264501
    10  H    0.292901
    11  F   -0.197551
    12  F   -0.203661
    13  F   -0.180910
 Sum of Mulliken charges =   0.00000

 Dipole moment (field-independent basis, Debye):
    X=             -1.7480    Y=             -2.9326    Z=              2.3943  Tot=              4.1699
 Quadrupole moment (field-independent basis, Debye-Ang):
   XX=            -49.3202   YY=            -49.7174   ZZ=            -43.8697
   XY=              6.6995   XZ=             -0.9307   YZ=              0.6099

 Optimization completed.
    -- Stationary point found.

                         Standard orientation:
 ---------------------------------------------------------------------
 Center     Atomic      Atomic             Coordinates (Angstroms)
 Number     Number       Type             X           Y           Z
 ---------------------------------------------------------------------
      1          6           0       -2.304558   -1.007790   -0.095226
      2          6           0       -1.468832    0.204524    0.197278
      3          1           0       -1.720958   -1.745775   -0.656942
      4          1           0       -3.188875   -0.723461   -0.666169
      5          1           0       -2.616000   -1.482601    0.843410
      6          6           0       -0.144876   -0.025189    0.934164
      7          8           0       -1.817397    1.348729   -0.098283
      8          6           0        1.044970   -0.033921    0.012607
      9          1           0       -0.152631   -0.980669    1.463434
     10          1           0        0.001854    0.782627    1.655308
     11          9           0        0.923550   -1.014235   -0.975631
     12          9           0        2.216358   -0.317179    0.710465
     13          9           0        1.244044    1.168559   -0.639913
 ---------------------------------------------------------------------

 Normal termination of Gaussian 09 at Wed May 26 09:21:14 2021.
