 Gaussian 09, Revision D.01,
 Gaussian 09:  ES64L-G09RevD.01 24-Apr-2013

 -----------------------------
 #p wB97XD/6-31+G Opt=ModRedun
 -----------------------------

 -----
 O.pdb
 -----
 Symbolic Z-matrix:
 Charge =  0 Multiplicity = 1

 SCF Done:  E(RwB97XD) =  -268.201429341     A.U. after   14 cycles

 The electronic state is 1-A.
 Alpha  occ. eigenvalues --  -19.31111 -19.28215 -10.45385 -10.36846 -10.31912
 Alpha  occ. eigenvalues --   -1.21527  -1.13943  -0.87252  -0.83152  -0.66877
 Alpha  occ. eigenvalues --   -0.60125  -0.58601  -0.57545  -0.53752  -0.52045
 Alpha  occ. eigenvalues --   -0.50911  -0.47498  -0.42552  -0.38499  -0.36507
 Alpha virt. eigenvalues --    0.04423   0.06448   0.07725   0.09486   0.09641
 Alpha virt. eigenvalues --    0.11793   0.12514   0.12888   0.14581   0.14797
 Alpha virt. eigenvalues --    0.16328   0.17130   0.19325   0.21774   0.23868

 Mulliken charges:
               1
     1  C   -0.657522
     2  C    0.377450
     3  H    0.252032
     4  H    0.250977
     5  H    0.226728
     6  O   -0.311664
     7  O   -0.380260
     8  C   -0.401392
     9  H    0.216036
    10  H    0.233521
    11  H    0.194094
 Sum of Mulliken charges =   0.00000

 Dipole moment (field-independent basis, Debye):
    X=             -2.3757    Y=              3.9809    Z=              0.9031  Tot=              4.7231
 Quadrupole moment (field-independent basis, Debye-Ang):
   XX=            -28.7646   YY=            -33.1449   ZZ=            -30.5619
   XY=              3.3109   XZ=             -2.2403   YZ=             -0.3164

 Optimization completed.
    -- Stationary point found.

                         Standard orientation:
 ---------------------------------------------------------------------
 Center     Atomic      Atomic             Coordinates (Angstroms)
 Number     Number       Type             X           Y           Z
 ---------------------------------------------------------------------
      1          6           0        0.970266    1.262966   -0.016235
      2          6           0        0.576527   -0.190079   -0.033649
      3          1           0        0.742398    1.716768   -0.985064
      4          1           0        2.037090    1.345119    0.189655
      5          1           0        0.421326    1.817730    0.752515
      6          8           0       -0.709878   -0.457631   -0.478838
      7          8           0        1.340672   -1.115917    0.195582
      8          6           0       -1.850356    0.101179    0.236515
      9          1           0       -1.843973   -0.238350    1.275728
     10          1           0       -2.725264   -0.292384   -0.275456
     11          1           0       -1.856551    1.195103    0.188875
 ---------------------------------------------------------------------

 Normal termination of Gaussian 09 at Wed May 26 09:01:17 2021.
