 Gaussian 09, Revision D.01,
 Gaussian 09:  ES64L-G09RevD.01 24-Apr-2013

 ---------------------------------
 #p wB97XD/6-31+G Opt Freq=NoRaman
 ---------------------------------

 -----
 L.pdb
 -----
 Symbolic Z-matrix:
 Charge =  0 Multiplicity = 1

 SCF Done:  E(RwB97XD) =  -191.795575467     A.U. after   13 cycles
 SCF Done:  E(RwB97XD) =  -191.795694544     A.U. after   11 cycles
 SCF Done:  E(RwB97XD) =  -191.795700669     A.U. after   11 cycles
 SCF Done:  E(RwB97XD) =  -191.795698706     A.U. after   11 cycles
 SCF Done:  E(RwB97XD) =  -191.795701099     A.U. after   10 cycles
 Optimization completed.
    -- Stationary point found.
 Normal termination of Gaussian 09 at Wed May 12 13:36:43 2021.

 -------------------------------------------------------------------
 #P Geom=AllCheck Guess=TCheck SCRF=Check GenChk RwB97XD/6-31+G Freq
 -------------------------------------------------------------------

 Structure from the checkpoint file:  "/home/unibas/boittier/RDKit_G2/L.pdb/OPT_wB97XD_6-31+G/L.pdb.chk"
 -----
 L.pdb
 -----
 Charge =  0 Multiplicity = 1

                         Standard orientation:
 ---------------------------------------------------------------------
 Center     Atomic      Atomic             Coordinates (Angstroms)
 Number     Number       Type             X           Y           Z
 ---------------------------------------------------------------------
      1          6           0        1.768969    0.137046    0.000018
      2          6           0        0.562210   -0.445385   -0.000018
      3          6           0       -0.668412    0.358293   -0.000069
      4          8           0       -1.805749   -0.126084    0.000037
      5          1           0       -0.531276    1.453560    0.000066
      6          1           0        2.687009   -0.439995    0.000047
      7          1           0        1.874663    1.220029    0.000018
      8          1           0        0.438994   -1.524642   -0.000017
 ---------------------------------------------------------------------

 SCF Done:  E(RwB97XD) =  -191.795701099     A.U. after    1 cycles

 The electronic state is 1-A.
 Alpha  occ. eigenvalues --  -19.28844 -10.40594 -10.33992 -10.33285  -1.17174
 Alpha  occ. eigenvalues --   -0.92095  -0.75983  -0.68272  -0.58435  -0.57599
 Alpha  occ. eigenvalues --   -0.51324  -0.49849  -0.48873  -0.38219  -0.35365
 Alpha virt. eigenvalues --   -0.01290   0.06949   0.08346   0.08520   0.09262
 Alpha virt. eigenvalues --    0.12063   0.12471   0.12738   0.14872   0.15493
 Alpha virt. eigenvalues --    0.17737   0.18818   0.20197   0.22091   0.26120

 Mulliken charges:
               1
     1  C   -0.482806
     2  C    0.071239
     3  C    0.010307
     4  O   -0.434854
     5  H    0.181130
     6  H    0.211473
     7  H    0.205066
     8  H    0.238445
 Sum of Mulliken charges =   0.00000

 Dipole moment (field-independent basis, Debye):
    X=              3.7291    Y=              0.8769    Z=             -0.0001  Tot=              3.8308
 Quadrupole moment (field-independent basis, Debye-Ang):
   XX=            -28.1619   YY=            -21.6458   ZZ=            -25.3828
   XY=             -1.1845   XZ=              0.0003   YZ=              0.0001

  Exact polarizability:  61.082   6.398  34.665   0.000   0.000  21.934
 Approx polarizability:  65.814  11.091  34.598  -0.001   0.000  19.682

                      1                      2                      3
                      A                      A                      A
 Frequencies --    168.5326               336.9505               585.2031
 Red. masses --      3.3118                 2.7653                 4.9753
 Frc consts  --      0.0554                 0.1850                 1.0039
 IR Inten    --      6.6661                11.7255                 6.8253

                      4                      5                      6
                      A                      A                      A
 Frequencies --    617.9599               959.1257              1025.4782
 Red. masses --      1.1861                 1.6328                 1.5032
 Frc consts  --      0.2669                 0.8850                 0.9314
 IR Inten    --     15.8565                26.5733                40.4418

                      7                      8                      9
                      A                      A                      A
 Frequencies --   1038.8770              1068.7558              1217.2279
 Red. masses --      1.1567                 1.4828                 2.1245
 Frc consts  --      0.7355                 0.9979                 1.8546
 IR Inten    --     50.5535                 6.6374                33.2372

                     10                     11                     12
                      A                      A                      A
 Frequencies --   1343.2386              1425.8064              1499.1286
 Red. masses --      1.4010                 1.1723                 1.2307
 Frc consts  --      1.4894                 1.4041                 1.6297
 IR Inten    --      1.7663                 7.3458                 7.9069

                     13                     14                     15
                      A                      A                      A
 Frequencies --   1702.1001              1749.5526              3007.4440
 Red. masses --      5.3287                 5.6048                 1.0856
 Frc consts  --      9.0959                10.1080                 5.7850
 IR Inten    --     79.5975               171.7511                73.7585

                     16                     17                     18
                      A                      A                      A
 Frequencies --   3181.8195              3232.7570              3283.9803
 Red. masses --      1.0624                 1.0947                 1.1140
 Frc consts  --      6.3372                 6.7405                 7.0787
 IR Inten    --      6.1896                 1.5865                 7.9978

 - Thermochemistry -
 -------------------
 Temperature   298.150 Kelvin.  Pressure   1.00000 Atm.
 Atom     1 has atomic number  6 and mass  12.00000

 Molecular mass:    56.02621 amu.
 Principal axes and moments of inertia in atomic units:
                           1         2         3
     Eigenvalues --    37.70430 392.13390 429.83820
           X            1.00000  -0.00279   0.00000
           Y            0.00279   1.00000   0.00001
           Z            0.00000  -0.00001   1.00000
 This molecule is an asymmetric top.
 Rotational symmetry number  1.
 Rotational temperatures (Kelvin)      2.29719     0.22088     0.20150
 Rotational constants (GHZ):          47.86566     4.60236     4.19865
 Zero-point vibrational energy     164151.2 (Joules/Mol)
                                   39.23308 (Kcal/Mol)
 Warning -- explicit consideration of   4 degrees of freedom as
           vibrations may cause significant error
 Vibrational temperatures:    242.48   484.80   841.98   889.11  1379.97
          (Kelvin)           1475.43  1494.71  1537.70  1751.32  1932.62
                             2051.41  2156.91  2448.94  2517.21  4327.04
                             4577.92  4651.21  4724.91

 Zero-point correction=                           0.062522 (Hartree/Particle)
 Thermal correction to Energy=                    0.066838
 Thermal correction to Enthalpy=                  0.067782
 Thermal correction to Gibbs Free Energy=         0.036244
 Sum of electronic and zero-point Energies=           -191.733179
 Sum of electronic and thermal Energies=              -191.728864
 Sum of electronic and thermal Enthalpies=            -191.727919
 Sum of electronic and thermal Free Energies=         -191.759457

                     E (Thermal)             CV                S
                      KCal/Mol        Cal/Mol-Kelvin    Cal/Mol-Kelvin
 Total                   41.941             13.482             66.376
 Electronic               0.000              0.000              0.000
 Translational            0.889              2.981             37.991
 Rotational               0.889              2.981             23.367
 Vibrational             40.164              7.520              5.018
 Vibration     1          0.625              1.881              2.452
 Vibration     2          0.718              1.602              1.227
 Vibration     3          0.942              1.063              0.476
 Vibration     4          0.978              0.994              0.420

 Optimization completed.
    -- Stationary point found.
 Normal termination of Gaussian 09 at Wed May 12 13:36:49 2021.
