 Gaussian 09, Revision D.01,
 Gaussian 09:  ES64L-G09RevD.01 24-Apr-2013

 -----------------------------
 #p wB97XD/6-31+G Opt=ModRedun
 -----------------------------

 -----
 O.pdb
 -----
 Symbolic Z-matrix:
 Charge =  0 Multiplicity = 1

 SCF Done:  E(RwB97XD) =  -268.221725187     A.U. after   13 cycles

 The electronic state is 1-A.
 Alpha  occ. eigenvalues --  -19.32628 -19.27597 -10.44994 -10.35561 -10.31011
 Alpha  occ. eigenvalues --   -1.22460  -1.13514  -0.88136  -0.81335  -0.66537
 Alpha  occ. eigenvalues --   -0.59655  -0.58578  -0.56876  -0.52888  -0.51579
 Alpha  occ. eigenvalues --   -0.49457  -0.46235  -0.44331  -0.39172  -0.36752
 Alpha virt. eigenvalues --    0.06398   0.07236   0.07891   0.10065   0.10249
 Alpha virt. eigenvalues --    0.11185   0.12720   0.13429   0.15162   0.15940
 Alpha virt. eigenvalues --    0.16754   0.19925   0.20573   0.23201   0.25246

 Mulliken charges:
               1
     1  C   -0.769669
     2  C    0.464411
     3  H    0.244629
     4  H    0.242157
     5  H    0.242567
     6  O   -0.296101
     7  O   -0.452207
     8  C   -0.340886
     9  H    0.223010
    10  H    0.218328
    11  H    0.223760
 Sum of Mulliken charges =   0.00000

 Dipole moment (field-independent basis, Debye):
    X=             -0.4765    Y=             -1.9280    Z=              0.0315  Tot=              1.9862
 Quadrupole moment (field-independent basis, Debye-Ang):
   XX=            -22.9993   YY=            -36.7913   ZZ=            -29.5163
   XY=             -2.0010   XZ=              0.0331   YZ=             -0.0305

 Optimization completed.
    -- Stationary point found.

                         Standard orientation:
 ---------------------------------------------------------------------
 Center     Atomic      Atomic             Coordinates (Angstroms)
 Number     Number       Type             X           Y           Z
 ---------------------------------------------------------------------
      1          6           0        1.803912   -0.536444    0.001381
      2          6           0        0.483695    0.169248   -0.004137
      3          1           0        1.925544   -1.086919    0.939109
      4          1           0        2.605413    0.194881   -0.098633
      5          1           0        1.850114   -1.260409   -0.815929
      6          8           0       -0.559264   -0.713854   -0.005273
      7          8           0        0.315142    1.389319   -0.000324
      8          6           0       -1.910297   -0.155866    0.003381
      9          1           0       -2.062851    0.438107    0.906299
     10          1           0       -2.567435   -1.021780   -0.012524
     11          1           0       -2.061667    0.470768   -0.877297
 ---------------------------------------------------------------------

 Normal termination of Gaussian 09 at Wed May 26 09:01:17 2021.
