 Gaussian 09, Revision D.01,
 Gaussian 09:  ES64L-G09RevD.01 24-Apr-2013

 -----------------------------
 #p wB97XD/6-31+G Opt=ModRedun
 -----------------------------

 -----
 O.pdb
 -----
 Symbolic Z-matrix:
 Charge =  0 Multiplicity = 1

 SCF Done:  E(RwB97XD) =  -268.200790131     A.U. after   14 cycles

 The electronic state is 1-A.
 Alpha  occ. eigenvalues --  -19.30398 -19.28801 -10.45563 -10.36458 -10.31594
 Alpha  occ. eigenvalues --   -1.21563  -1.13653  -0.87598  -0.82113  -0.66507
 Alpha  occ. eigenvalues --   -0.59711  -0.58334  -0.57246  -0.53055  -0.52603
 Alpha  occ. eigenvalues --   -0.50734  -0.47108  -0.43008  -0.37938  -0.36717
 Alpha virt. eigenvalues --    0.03932   0.06693   0.07992   0.09928   0.10381
 Alpha virt. eigenvalues --    0.10976   0.12449   0.13098   0.14719   0.15065
 Alpha virt. eigenvalues --    0.16508   0.17286   0.19727   0.22858   0.24195

 Mulliken charges:
               1
     1  C   -0.630127
     2  C    0.353580
     3  H    0.226091
     4  H    0.240726
     5  H    0.253762
     6  O   -0.312829
     7  O   -0.386531
     8  C   -0.390883
     9  H    0.195180
    10  H    0.228198
    11  H    0.222834
 Sum of Mulliken charges =   0.00000

 Dipole moment (field-independent basis, Debye):
    X=             -1.0589    Y=             -3.1185    Z=              1.4447  Tot=              3.5963
 Quadrupole moment (field-independent basis, Debye-Ang):
   XX=            -25.7226   YY=            -34.1889   ZZ=            -31.2051
   XY=             -3.1590   XZ=             -2.3676   YZ=             -0.8221

 Optimization completed.
    -- Stationary point found.

                         Standard orientation:
 ---------------------------------------------------------------------
 Center     Atomic      Atomic             Coordinates (Angstroms)
 Number     Number       Type             X           Y           Z
 ---------------------------------------------------------------------
      1          6           0        1.407359   -0.978863    0.124337
      2          6           0        0.532366    0.215112   -0.107197
      3          1           0        0.921947   -1.656760    0.834845
      4          1           0        2.377013   -0.669032    0.513284
      5          1           0        1.537798   -1.529479   -0.812022
      6          8           0       -0.719277   -0.113697   -0.624757
      7          8           0        0.838304    1.376556    0.124129
      8          6           0       -1.842945   -0.178206    0.304931
      9          1           0       -1.689185   -0.984383    1.030290
     10          1           0       -2.714027   -0.391887   -0.309781
     11          1           0       -1.966445    0.780408    0.815983
 ---------------------------------------------------------------------

 Normal termination of Gaussian 09 at Wed May 26 09:01:20 2021.
