 Gaussian 09, Revision D.01,
 Gaussian 09:  ES64L-G09RevD.01 24-Apr-2013

 -----------------------------
 #p wB97XD/6-31+G Opt=ModRedun
 -----------------------------

 -----
 L.pdb
 -----
 Symbolic Z-matrix:
 Charge =  0 Multiplicity = 1

 SCF Done:  E(RwB97XD) =  -191.790904167     A.U. after   13 cycles
 SCF Done:  E(RwB97XD) =  -191.791027381     A.U. after   12 cycles
 SCF Done:  E(RwB97XD) =  -191.791027268     A.U. after   11 cycles
 SCF Done:  E(RwB97XD) =  -191.791033397     A.U. after   11 cycles
 SCF Done:  E(RwB97XD) =  -191.791034641     A.U. after   10 cycles
 Optimization completed.
    -- Stationary point found.

                         Standard orientation:
 ---------------------------------------------------------------------
 Center     Atomic      Atomic             Coordinates (Angstroms)
 Number     Number       Type             X           Y           Z
 ---------------------------------------------------------------------
      1          6           0       -1.733672    0.153996   -0.139362
      2          6           0       -0.575735   -0.434469    0.186814
      3          6           0        0.686113    0.331303    0.197061
      4          8           0        1.758294   -0.124271   -0.214670
      5          1           0        0.618528    1.386434    0.511783
      6          1           0       -2.648612   -0.413864   -0.267343
      7          1           0       -1.802664    1.228923   -0.292107
      8          1           0       -0.493834   -1.512306    0.297956
 ---------------------------------------------------------------------

 The electronic state is 1-A.
 Alpha  occ. eigenvalues --  -19.29071 -10.40835 -10.33637 -10.33285  -1.17413
 Alpha  occ. eigenvalues --   -0.91869  -0.75929  -0.68096  -0.58605  -0.57476
 Alpha  occ. eigenvalues --   -0.52395  -0.49430  -0.48124  -0.38108  -0.35412
 Alpha virt. eigenvalues --   -0.00717   0.06907   0.07792   0.08890   0.09084
 Alpha virt. eigenvalues --    0.11455   0.12681   0.12883   0.14724   0.15889
 Alpha virt. eigenvalues --    0.17420   0.18050   0.20078   0.22630   0.26848

 Mulliken charges:
               1
     1  C   -0.428989
     2  C   -0.024350
     3  C    0.026832
     4  O   -0.408681
     5  H    0.181193
     6  H    0.211309
     7  H    0.205095
     8  H    0.237591
 Sum of Mulliken charges =   0.00000

 Dipole moment (field-independent basis, Debye):
    X=             -3.4245    Y=              0.8302    Z=              0.6954  Tot=              3.5917
 Quadrupole moment (field-independent basis, Debye-Ang):
   XX=            -27.9676   YY=            -21.6972   ZZ=            -25.3287
   XY=              1.2084   XZ=              2.1938   YZ=             -0.3843

 Normal termination of Gaussian 09 at Wed May 12 11:58:35 2021.
