 Gaussian 09, Revision D.01,
 Gaussian 09:  ES64L-G09RevD.01 24-Apr-2013

 -----------------------------
 #p wB97XD/6-31+G Opt=ModRedun
 -----------------------------

 -----
 N.pdb
 -----
 Symbolic Z-matrix:
 Charge =  0 Multiplicity = 1

 SCF Done:  E(RwB97XD) =  -529.926052274     A.U. after   15 cycles

 The electronic state is 1-A.
 Alpha  occ. eigenvalues --  -24.89037 -24.88909 -24.88866 -19.30508 -10.59516
 Alpha  occ. eigenvalues --  -10.43861 -10.36303 -10.32242  -1.43825  -1.35310
 Alpha  occ. eigenvalues --   -1.35268  -1.19589  -0.95182  -0.87444  -0.79846
 Alpha  occ. eigenvalues --   -0.71007  -0.70155  -0.69071  -0.64118  -0.59469
 Alpha  occ. eigenvalues --   -0.58462  -0.57359  -0.56745  -0.55660  -0.54158
 Alpha  occ. eigenvalues --   -0.53564  -0.52455  -0.51331  -0.51038  -0.49651
 Alpha  occ. eigenvalues --   -0.46420  -0.36990
 Alpha virt. eigenvalues --    0.00832   0.05653   0.07848   0.09224   0.10074
 Alpha virt. eigenvalues --    0.10744   0.11165   0.12422   0.12531   0.12984
 Alpha virt. eigenvalues --    0.14680   0.15937   0.16307   0.16509   0.17316

 Mulliken charges:
               1
     1  C   -0.700977
     2  C    0.397493
     3  H    0.257860
     4  H    0.251081
     5  H    0.236863
     6  C   -0.534577
     7  O   -0.384977
     8  C    0.494972
     9  H    0.269773
    10  H    0.294321
    11  F   -0.201441
    12  F   -0.199748
    13  F   -0.180642
 Sum of Mulliken charges =   0.00000

 Dipole moment (field-independent basis, Debye):
    X=              1.0979    Y=              2.2779    Z=              2.4223  Tot=              3.5017
 Quadrupole moment (field-independent basis, Debye-Ang):
   XX=            -51.9842   YY=            -48.7184   ZZ=            -44.0347
   XY=              6.9941   XZ=              1.3099   YZ=             -1.3203

 Optimization completed.
    -- Stationary point found.

                         Standard orientation:
 ---------------------------------------------------------------------
 Center     Atomic      Atomic             Coordinates (Angstroms)
 Number     Number       Type             X           Y           Z
 ---------------------------------------------------------------------
      1          6           0        2.087463    1.139941   -0.037246
      2          6           0        1.488448   -0.220242    0.178487
      3          1           0        1.424659    1.763440   -0.646459
      4          1           0        3.053701    1.040486   -0.532598
      5          1           0        2.219571    1.651285    0.923509
      6          6           0        0.137713   -0.305445    0.896097
      7          8           0        2.059172   -1.260316   -0.156976
      8          6           0       -1.041420   -0.003915    0.011707
      9          1           0        0.102910    0.394740    1.735459
     10          1           0        0.015067   -1.323576    1.271668
     11          9           0       -1.044933    1.318171   -0.439437
     12          9           0       -2.240312   -0.190052    0.691679
     13          9           0       -1.083923   -0.806551   -1.117802
 ---------------------------------------------------------------------

 Normal termination of Gaussian 09 at Wed May 26 09:20:53 2021.
