 Gaussian 09, Revision D.01,
 Gaussian 09:  ES64L-G09RevD.01 24-Apr-2013

 -----------------------------
 #p wB97XD/6-31+G Opt=ModRedun
 -----------------------------

 -----
 O.pdb
 -----
 Symbolic Z-matrix:
 Charge =  0 Multiplicity = 1

 SCF Done:  E(RwB97XD) =  -268.199526337     A.U. after   14 cycles

 The electronic state is 1-A.
 Alpha  occ. eigenvalues --  -19.30550 -19.28697 -10.45546 -10.36696 -10.31769
 Alpha  occ. eigenvalues --   -1.21492  -1.13813  -0.87422  -0.82593  -0.66682
 Alpha  occ. eigenvalues --   -0.59902  -0.58392  -0.57487  -0.53453  -0.52300
 Alpha  occ. eigenvalues --   -0.50925  -0.47388  -0.42677  -0.38172  -0.36617
 Alpha virt. eigenvalues --    0.03998   0.06562   0.07830   0.09735   0.09938
 Alpha virt. eigenvalues --    0.11407   0.12455   0.12992   0.14680   0.14810
 Alpha virt. eigenvalues --    0.16261   0.17145   0.19528   0.22667   0.23609

 Mulliken charges:
               1
     1  C   -0.625257
     2  C    0.348091
     3  H    0.257096
     4  H    0.243579
     5  H    0.215398
     6  O   -0.313485
     7  O   -0.369565
     8  C   -0.393256
     9  H    0.218916
    10  H    0.230746
    11  H    0.187738
 Sum of Mulliken charges =   0.00000

 Dipole moment (field-independent basis, Debye):
    X=              1.6519    Y=              3.6361    Z=             -1.1950  Tot=              4.1687
 Quadrupole moment (field-independent basis, Debye-Ang):
   XX=            -27.2376   YY=            -33.4841   ZZ=            -31.0794
   XY=             -3.3004   XZ=             -2.5743   YZ=             -0.0852

 Optimization completed.
    -- Stationary point found.

                         Standard orientation:
 ---------------------------------------------------------------------
 Center     Atomic      Atomic             Coordinates (Angstroms)
 Number     Number       Type             X           Y           Z
 ---------------------------------------------------------------------
      1          6           0       -1.190237    1.148392   -0.047359
      2          6           0       -0.553716   -0.207101    0.062832
      3          1           0       -1.316615    1.564047    0.957608
      4          1           0       -2.161820    1.067377   -0.534092
      5          1           0       -0.553820    1.838982   -0.609267
      6          8           0        0.735687   -0.194860    0.592363
      7          8           0       -1.110356   -1.265401   -0.187736
      8          6           0        1.849435    0.147784   -0.284249
      9          1           0        1.935153   -0.591578   -1.085150
     10          1           0        2.732760    0.115681    0.349141
     11          1           0        1.728798    1.153134   -0.702605
 ---------------------------------------------------------------------

 Normal termination of Gaussian 09 at Wed May 26 09:01:17 2021.
