 Gaussian 09, Revision D.01,
 Gaussian 09:  ES64L-G09RevD.01 24-Apr-2013

 -----------------------------
 #p wB97XD/6-31+G Opt=ModRedun
 -----------------------------

 -----
 B.pdb
 -----
 Symbolic Z-matrix:
 Charge =  0 Multiplicity = 1

 SCF Done:  E(RwB97XD) =  -255.098365102     A.U. after   13 cycles
 SCF Done:  E(RwB97XD) =  -255.098522432     A.U. after   11 cycles
 SCF Done:  E(RwB97XD) =  -255.098537694     A.U. after   10 cycles
 SCF Done:  E(RwB97XD) =  -255.098540312     A.U. after    9 cycles
 Optimization completed.
    -- Stationary point found.

                         Standard orientation:
 ---------------------------------------------------------------------
 Center     Atomic      Atomic             Coordinates (Angstroms)
 Number     Number       Type             X           Y           Z
 ---------------------------------------------------------------------
      1          6           0        0.839713    1.335760   -0.000036
      2          6           0        0.465879    0.058605    0.000005
      3          6           0       -0.857546   -0.567816    0.000078
      4          6           0       -2.025930    0.086558   -0.000092
      5          1           0        1.886365    1.609637   -0.000077
      6          1           0        0.101006    2.127018    0.000027
      7          9           0        1.486126   -0.919757    0.000041
      8          1           0       -0.839176   -1.653677    0.000323
      9          1           0       -2.090964    1.170736   -0.000362
     10          1           0       -2.965060   -0.454544   -0.000008
 ---------------------------------------------------------------------

 The electronic state is 1-A.
 Alpha  occ. eigenvalues --  -24.83084 -10.40353 -10.33138 -10.31965 -10.31095
 Alpha  occ. eigenvalues --   -1.31137  -0.93122  -0.85938  -0.74792  -0.65123
 Alpha  occ. eigenvalues --   -0.61569  -0.58235  -0.54114  -0.54036  -0.50496
 Alpha  occ. eigenvalues --   -0.48350  -0.45785  -0.41427  -0.32879
 Alpha virt. eigenvalues --    0.01000   0.07249   0.08390   0.09096   0.10937
 Alpha virt. eigenvalues --    0.11793   0.12409   0.12843   0.14650   0.15878
 Alpha virt. eigenvalues --    0.16350   0.17569   0.18006   0.19305   0.21264

 Mulliken charges:
               1
     1  C   -0.295907
     2  C    0.005501
     3  C    0.006250
     4  C   -0.439217
     5  H    0.221119
     6  H    0.196526
     7  F   -0.313769
     8  H    0.228269
     9  H    0.189314
    10  H    0.201913
 Sum of Mulliken charges =   0.00000

 Dipole moment (field-independent basis, Debye):
    X=             -1.9503    Y=              1.3937    Z=              0.0000  Tot=              2.3971
 Quadrupole moment (field-independent basis, Debye-Ang):
   XX=            -28.7676   YY=            -27.2064   ZZ=            -32.7814
   XY=              2.8290   XZ=              0.0000   YZ=             -0.0007

 Normal termination of Gaussian 09 at Wed May 12 11:56:12 2021.
