 Gaussian 09, Revision D.01,
 Gaussian 09:  ES64L-G09RevD.01 24-Apr-2013

 -----------------------------
 #p wB97XD/6-31+G Opt=ModRedun
 -----------------------------

 -----
 N.pdb
 -----
 Symbolic Z-matrix:
 Charge =  0 Multiplicity = 1

 SCF Done:  E(RwB97XD) =  -529.927633368     A.U. after   15 cycles
 SCF Done:  E(RwB97XD) =  -529.927633274     A.U. after   10 cycles
 Optimization completed.
    -- Stationary point found.

                         Standard orientation:
 ---------------------------------------------------------------------
 Center     Atomic      Atomic             Coordinates (Angstroms)
 Number     Number       Type             X           Y           Z
 ---------------------------------------------------------------------
      1          6           0       -1.682361    1.267583   -0.023585
      2          6           0       -1.549584   -0.226847   -0.043949
      3          1           0       -1.082897    1.703777    0.782010
      4          1           0       -2.731535    1.525727    0.122419
      5          1           0       -1.323267    1.701027   -0.963035
      6          6           0       -0.189289   -0.894323   -0.259878
      7          8           0       -2.525828   -0.974291    0.071828
      8          6           0        1.040112   -0.076780   -0.001455
      9          1           0       -0.144596   -1.238878   -1.299572
     10          1           0       -0.148673   -1.783339    0.374888
     11          9           0        1.169072    1.005999   -0.870326
     12          9           0        2.189804   -0.842905   -0.155459
     13          9           0        1.077160    0.444486    1.290437
 ---------------------------------------------------------------------

 The electronic state is 1-A.
 Alpha  occ. eigenvalues --  -24.89289 -24.89278 -24.89118 -19.30178 -10.59551
 Alpha  occ. eigenvalues --  -10.43982 -10.36470 -10.31992  -1.44063  -1.35581
 Alpha  occ. eigenvalues --   -1.35520  -1.19433  -0.95262  -0.87230  -0.80273
 Alpha  occ. eigenvalues --   -0.71126  -0.70456  -0.69309  -0.64258  -0.59829
 Alpha  occ. eigenvalues --   -0.58475  -0.57731  -0.57073  -0.55099  -0.54210
 Alpha  occ. eigenvalues --   -0.53766  -0.52931  -0.52296  -0.50446  -0.49558
 Alpha  occ. eigenvalues --   -0.45959  -0.36963
 Alpha virt. eigenvalues --    0.01403   0.06248   0.08162   0.09545   0.10073
 Alpha virt. eigenvalues --    0.10641   0.11217   0.11610   0.12898   0.13401
 Alpha virt. eigenvalues --    0.13759   0.16053   0.16582   0.17548   0.17714

 Mulliken charges:
               1
     1  C   -0.800152
     2  C    0.498865
     3  H    0.260502
     4  H    0.250739
     5  H    0.257163
     6  C   -0.559150
     7  O   -0.402257
     8  C    0.501544
     9  H    0.296462
    10  H    0.297389
    11  F   -0.194809
    12  F   -0.206444
    13  F   -0.199853
 Sum of Mulliken charges =   0.00000

 Dipole moment (field-independent basis, Debye):
    X=             -0.0301    Y=              0.6550    Z=             -0.8684  Tot=              1.0881
 Quadrupole moment (field-independent basis, Debye-Ang):
   XX=            -57.9848   YY=            -45.1301   ZZ=            -45.3606
   XY=             -6.3582   XZ=              0.7212   YZ=              0.7737

 Normal termination of Gaussian 09 at Wed May 26 09:21:00 2021.
