 Gaussian 09, Revision D.01,
 Gaussian 09:  ES64L-G09RevD.01 24-Apr-2013

 -----------------------------
 #p wB97XD/6-31+G Opt=ModRedun
 -----------------------------

 -----
 O.pdb
 -----
 Symbolic Z-matrix:
 Charge =  0 Multiplicity = 1

 SCF Done:  E(RwB97XD) =  -268.213285572     A.U. after   14 cycles

 The electronic state is 1-A.
 Alpha  occ. eigenvalues --  -19.31830 -19.27931 -10.45192 -10.35847 -10.31199
 Alpha  occ. eigenvalues --   -1.22035  -1.13520  -0.87936  -0.81593  -0.66484
 Alpha  occ. eigenvalues --   -0.59584  -0.58485  -0.56843  -0.53064  -0.51878
 Alpha  occ. eigenvalues --   -0.49863  -0.46565  -0.43727  -0.38643  -0.36744
 Alpha virt. eigenvalues --    0.05125   0.07114   0.08191   0.10101   0.10291
 Alpha virt. eigenvalues --    0.11070   0.12735   0.13080   0.15285   0.15789
 Alpha virt. eigenvalues --    0.16382   0.19163   0.20513   0.22588   0.24550

 Mulliken charges:
               1
     1  C   -0.663686
     2  C    0.381546
     3  H    0.241149
     4  H    0.239626
     5  H    0.243495
     6  O   -0.298515
     7  O   -0.435335
     8  C   -0.371808
     9  H    0.208602
    10  H    0.222260
    11  H    0.232666
 Sum of Mulliken charges =   0.00000

 Dipole moment (field-independent basis, Debye):
    X=             -0.5683    Y=             -2.1670    Z=              1.0769  Tot=              2.4856
 Quadrupole moment (field-independent basis, Debye-Ang):
   XX=            -23.5651   YY=            -36.2129   ZZ=            -29.9993
   XY=             -2.4075   XZ=             -0.9300   YZ=             -1.0148

 Optimization completed.
    -- Stationary point found.

                         Standard orientation:
 ---------------------------------------------------------------------
 Center     Atomic      Atomic             Coordinates (Angstroms)
 Number     Number       Type             X           Y           Z
 ---------------------------------------------------------------------
      1          6           0        1.714554   -0.642816    0.148149
      2          6           0        0.497604    0.186059   -0.122729
      3          1           0        1.616754   -1.073077    1.150728
      4          1           0        2.609320   -0.021788    0.107430
      5          1           0        1.791484   -1.470003   -0.560875
      6          8           0       -0.609395   -0.591431   -0.372091
      7          8           0        0.430745    1.409258   -0.018483
      8          6           0       -1.883373   -0.165501    0.207964
      9          1           0       -1.785027   -0.114186    1.295004
     10          1           0       -2.593754   -0.936351   -0.079989
     11          1           0       -2.182291    0.806334   -0.188003
 ---------------------------------------------------------------------

 Normal termination of Gaussian 09 at Wed May 26 09:01:20 2021.
