 Gaussian 09, Revision D.01,
 Gaussian 09:  ES64L-G09RevD.01 24-Apr-2013

 ---------------------------------
 #p wB97XD/6-31+G Opt Freq=NoRaman
 ---------------------------------

 -----
 O.pdb
 -----
 Symbolic Z-matrix:
 Charge =  0 Multiplicity = 1

 SCF Done:  E(RwB97XD) =  -268.185877924     A.U. after   14 cycles
 SCF Done:  E(RwB97XD) =  -268.197239107     A.U. after   13 cycles
 SCF Done:  E(RwB97XD) =  -268.201812053     A.U. after   15 cycles
 SCF Done:  E(RwB97XD) =  -268.207809141     A.U. after   14 cycles
 SCF Done:  E(RwB97XD) =  -268.214230215     A.U. after   13 cycles
 SCF Done:  E(RwB97XD) =  -268.218598212     A.U. after   15 cycles
 SCF Done:  E(RwB97XD) =  -268.215238529     A.U. after   14 cycles
 SCF Done:  E(RwB97XD) =  -268.220800593     A.U. after   11 cycles
 SCF Done:  E(RwB97XD) =  -268.220171279     A.U. after   13 cycles
 SCF Done:  E(RwB97XD) =  -268.221297836     A.U. after   10 cycles
 SCF Done:  E(RwB97XD) =  -268.221493951     A.U. after   14 cycles
 SCF Done:  E(RwB97XD) =  -268.221566271     A.U. after   12 cycles
 SCF Done:  E(RwB97XD) =  -268.221573382     A.U. after   11 cycles
 SCF Done:  E(RwB97XD) =  -268.221113670     A.U. after   14 cycles
 SCF Done:  E(RwB97XD) =  -268.221709765     A.U. after   12 cycles
 SCF Done:  E(RwB97XD) =  -268.221717412     A.U. after   11 cycles
 SCF Done:  E(RwB97XD) =  -268.221722658     A.U. after   10 cycles
 SCF Done:  E(RwB97XD) =  -268.221724201     A.U. after    9 cycles
 SCF Done:  E(RwB97XD) =  -268.221725187     A.U. after    9 cycles
 Optimization completed.
    -- Stationary point found.
 Normal termination of Gaussian 09 at Wed May 26 08:18:04 2021.

 -------------------------------------------------------------------
 #P Geom=AllCheck Guess=TCheck SCRF=Check GenChk RwB97XD/6-31+G Freq
 -------------------------------------------------------------------

 Structure from the checkpoint file:  "/home/unibas/boittier/RDKit_G2/O.pdb/OPT_wB97XD_6-31+G/O.pdb.chk"
 -----
 O.pdb
 -----
 Charge =  0 Multiplicity = 1

                         Standard orientation:
 ---------------------------------------------------------------------
 Center     Atomic      Atomic             Coordinates (Angstroms)
 Number     Number       Type             X           Y           Z
 ---------------------------------------------------------------------
      1          6           0        1.803912   -0.536444    0.001381
      2          6           0        0.483695    0.169248   -0.004137
      3          1           0        1.925544   -1.086919    0.939109
      4          1           0        2.605413    0.194881   -0.098633
      5          1           0        1.850114   -1.260409   -0.815929
      6          8           0       -0.559264   -0.713854   -0.005273
      7          8           0        0.315142    1.389319   -0.000324
      8          6           0       -1.910297   -0.155866    0.003381
      9          1           0       -2.062851    0.438107    0.906299
     10          1           0       -2.567435   -1.021780   -0.012524
     11          1           0       -2.061667    0.470768   -0.877297
 ---------------------------------------------------------------------

 SCF Done:  E(RwB97XD) =  -268.221725187     A.U. after    1 cycles

 The electronic state is 1-A.
 Alpha  occ. eigenvalues --  -19.32628 -19.27597 -10.44994 -10.35561 -10.31011
 Alpha  occ. eigenvalues --   -1.22460  -1.13514  -0.88136  -0.81335  -0.66537
 Alpha  occ. eigenvalues --   -0.59655  -0.58578  -0.56876  -0.52888  -0.51579
 Alpha  occ. eigenvalues --   -0.49457  -0.46235  -0.44331  -0.39172  -0.36752
 Alpha virt. eigenvalues --    0.06398   0.07236   0.07891   0.10065   0.10249
 Alpha virt. eigenvalues --    0.11185   0.12720   0.13429   0.15162   0.15940
 Alpha virt. eigenvalues --    0.16754   0.19925   0.20573   0.23201   0.25246

 Mulliken charges:
               1
     1  C   -0.769670
     2  C    0.464411
     3  H    0.244629
     4  H    0.242157
     5  H    0.242567
     6  O   -0.296101
     7  O   -0.452207
     8  C   -0.340886
     9  H    0.223010
    10  H    0.218328
    11  H    0.223760
 Sum of Mulliken charges =   0.00000

 Dipole moment (field-independent basis, Debye):
    X=             -0.4765    Y=             -1.9280    Z=              0.0315  Tot=              1.9862
 Quadrupole moment (field-independent basis, Debye-Ang):
   XX=            -22.9993   YY=            -36.7913   ZZ=            -29.5163
   XY=             -2.0010   XZ=              0.0331   YZ=             -0.0305

  Exact polarizability:  47.375   0.615  44.436   0.096  -0.064  31.672
 Approx polarizability:  39.792   1.505  51.109   0.109  -0.051  31.053

                      1                      2                      3
                      A                      A                      A
 Frequencies --     78.7795               121.6934               185.4715
 Red. masses --      1.0703                 1.1226                 2.7453
 Frc consts  --      0.0039                 0.0098                 0.0556
 IR Inten    --      0.6996                 0.9588                12.4092

                      4                      5                      6
                      A                      A                      A
 Frequencies --    278.6362               429.3402               615.7167
 Red. masses --      3.2150                 3.2904                 2.9695
 Frc consts  --      0.1471                 0.3574                 0.6633
 IR Inten    --     16.3678                 5.3752                 7.0386

                      7                      8                      9
                      A                      A                      A
 Frequencies --    649.4708               840.2202              1005.3892
 Red. masses --      4.5787                 4.3136                 3.3631
 Frc consts  --      1.1379                 1.7942                 2.0029
 IR Inten    --      7.4302                20.6105                12.0809

                     10                     11                     12
                      A                      A                      A
 Frequencies --   1089.8982              1109.1505              1176.5541
 Red. masses --      2.2228                 1.6812                 1.2679
 Frc consts  --      1.5557                 1.2186                 1.0341
 IR Inten    --     65.3004                10.9480                 0.7395

                     13                     14                     15
                      A                      A                      A
 Frequencies --   1211.6215              1306.1972              1461.1952
 Red. masses --      1.4617                 4.2330                 1.2468
 Frc consts  --      1.2643                 4.2551                 1.5684
 IR Inten    --      2.5988               347.5033                41.2661

                     16                     17                     18
                      A                      A                      A
 Frequencies --   1497.9270              1518.0984              1523.1711
 Red. masses --      1.2002                 1.0589                 1.0464
 Frc consts  --      1.5866                 1.4378                 1.4304
 IR Inten    --     26.4502                24.8319                14.5057

                     19                     20                     21
                      A                      A                      A
 Frequencies --   1530.1619              1531.0208              1747.7698
 Red. masses --      1.0495                 1.0510                 9.2764
 Frc consts  --      1.4478                 1.4515                16.6955
 IR Inten    --     15.4238                12.4218               247.9651

                     22                     23                     24
                      A                      A                      A
 Frequencies --   3093.9273              3097.6567              3177.2840
 Red. masses --      1.0360                 1.0291                 1.0982
 Frc consts  --      5.8431                 5.8182                 6.5318
 IR Inten    --      1.7447                24.9543                 4.0337

                     25                     26                     27
                      A                      A                      A
 Frequencies --   3194.0139              3212.3789              3231.6287
 Red. masses --      1.1056                 1.1024                 1.1054
 Frc consts  --      6.6452                 6.7026                 6.8014
 IR Inten    --     17.5072                 5.1772                 9.5980

 - Thermochemistry -
 -------------------
 Temperature   298.150 Kelvin.  Pressure   1.00000 Atm.
 Atom     1 has atomic number  6 and mass  12.00000

 Molecular mass:    74.03678 amu.
 Principal axes and moments of inertia in atomic units:
                           1         2         3
     Eigenvalues --   179.93143 445.62201 602.88434
           X            0.99911  -0.04210   0.00012
           Y            0.04210   0.99911  -0.00037
           Z           -0.00010   0.00037   1.00000
 This molecule is an asymmetric top.
 Rotational symmetry number  1.
 Rotational temperatures (Kelvin)      0.48137     0.19437     0.14367
 Rotational constants (GHZ):          10.03016     4.04994     2.99351
 Zero-point vibrational energy     238741.0 (Joules/Mol)
                                   57.06046 (Kcal/Mol)
 Warning -- explicit consideration of   6 degrees of freedom as
           vibrations may cause significant error
 Vibrational temperatures:    113.35   175.09   266.85   400.89   617.72
          (Kelvin)            885.88   934.44  1208.89  1446.53  1568.12
                             1595.82  1692.80  1743.25  1879.32  2102.33
                             2155.18  2184.20  2191.50  2201.56  2202.79
                             2514.65  4451.47  4456.83  4571.40  4595.47
                             4621.89  4649.59

 Zero-point correction=                           0.090932 (Hartree/Particle)
 Thermal correction to Energy=                    0.097063
 Thermal correction to Enthalpy=                  0.098007
 Thermal correction to Gibbs Free Energy=         0.061304
 Sum of electronic and zero-point Energies=           -268.130794
 Sum of electronic and thermal Energies=              -268.124662
 Sum of electronic and thermal Enthalpies=            -268.123718
 Sum of electronic and thermal Free Energies=         -268.160421

                     E (Thermal)             CV                S
                      KCal/Mol        Cal/Mol-Kelvin    Cal/Mol-Kelvin
 Total                   60.908             19.312             77.248
 Electronic               0.000              0.000              0.000
 Translational            0.889              2.981             38.822
 Rotational               0.889              2.981             25.383
 Vibrational             59.130             13.350             13.042
 Vibration     1          0.600              1.963              3.921
 Vibration     2          0.609              1.931              3.073
 Vibration     3          0.632              1.860              2.273
 Vibration     4          0.679              1.713              1.542
 Vibration     5          0.791              1.406              0.861
 Vibration     6          0.975              0.999              0.423

 Normal termination of Gaussian 09 at Wed May 26 08:18:15 2021.
