 Gaussian 09, Revision D.01,
 Gaussian 09:  ES64L-G09RevD.01 24-Apr-2013

 -----------------------------
 #p wB97XD/6-31+G Opt=ModRedun
 -----------------------------

 -----
 B.pdb
 -----
 Symbolic Z-matrix:
 Charge =  0 Multiplicity = 1

 SCF Done:  E(RwB97XD) =  -255.098571452     A.U. after   13 cycles
 SCF Done:  E(RwB97XD) =  -255.098735355     A.U. after   11 cycles
 SCF Done:  E(RwB97XD) =  -255.098752390     A.U. after   10 cycles
 SCF Done:  E(RwB97XD) =  -255.098754941     A.U. after   10 cycles
 Optimization completed.
    -- Stationary point found.

                         Standard orientation:
 ---------------------------------------------------------------------
 Center     Atomic      Atomic             Coordinates (Angstroms)
 Number     Number       Type             X           Y           Z
 ---------------------------------------------------------------------
      1          6           0       -0.849327    1.330175    0.058133
      2          6           0       -0.465914    0.056202    0.032326
      3          6           0        0.861844   -0.551868    0.132418
      4          6           0        2.014196    0.089023   -0.100928
      5          1           0       -1.891714    1.601455   -0.044819
      6          1           0       -0.121056    2.119343    0.194882
      7          9           0       -1.469787   -0.930335   -0.099407
      8          1           0        0.862590   -1.599408    0.419693
      9          1           0        2.046997    1.125444   -0.424310
     10          1           0        2.966472   -0.415014    0.017523
 ---------------------------------------------------------------------

 The electronic state is 1-A.
 Alpha  occ. eigenvalues --  -24.83076 -10.40326 -10.33137 -10.31992 -10.31080
 Alpha  occ. eigenvalues --   -1.31100  -0.93164  -0.85911  -0.74691  -0.65143
 Alpha  occ. eigenvalues --   -0.61541  -0.58117  -0.54839  -0.53394  -0.50543
 Alpha  occ. eigenvalues --   -0.48423  -0.45717  -0.41084  -0.33091
 Alpha virt. eigenvalues --    0.01255   0.07287   0.08375   0.09041   0.10742
 Alpha virt. eigenvalues --    0.11580   0.12255   0.13031   0.14517   0.15631
 Alpha virt. eigenvalues --    0.16500   0.17603   0.18222   0.19145   0.21099

 Mulliken charges:
               1
     1  C   -0.351688
     2  C    0.043224
     3  C   -0.003897
     4  C   -0.423475
     5  H    0.220115
     6  H    0.200484
     7  F   -0.307880
     8  H    0.228654
     9  H    0.193373
    10  H    0.201090
 Sum of Mulliken charges =   0.00000

 Dipole moment (field-independent basis, Debye):
    X=              1.9357    Y=              1.4145    Z=              0.2131  Tot=              2.4069
 Quadrupole moment (field-independent basis, Debye-Ang):
   XX=            -28.7135   YY=            -27.5491   ZZ=            -32.4657
   XY=             -2.8563   XZ=             -0.1236   YZ=             -0.9966

 Normal termination of Gaussian 09 at Wed May 12 11:56:09 2021.
