 Gaussian 09, Revision D.01,
 Gaussian 09:  ES64L-G09RevD.01 24-Apr-2013

 -----------------------------
 #p wB97XD/6-31+G Opt=ModRedun
 -----------------------------

 -----
 B.pdb
 -----
 Symbolic Z-matrix:
 Charge =  0 Multiplicity = 1

 SCF Done:  E(RwB97XD) =  -255.097487020     A.U. after   13 cycles
 SCF Done:  E(RwB97XD) =  -255.097661797     A.U. after   11 cycles
 SCF Done:  E(RwB97XD) =  -255.097680833     A.U. after   11 cycles
 SCF Done:  E(RwB97XD) =  -255.097683571     A.U. after   10 cycles
 Optimization completed.
    -- Stationary point found.

                         Standard orientation:
 ---------------------------------------------------------------------
 Center     Atomic      Atomic             Coordinates (Angstroms)
 Number     Number       Type             X           Y           Z
 ---------------------------------------------------------------------
      1          6           0        1.644717   -0.740819    0.183763
      2          6           0        0.520365   -0.085050   -0.092286
      3          6           0       -0.835758   -0.618774   -0.250328
      4          6           0       -1.937491   -0.016551    0.212967
      5          1           0        2.577580   -0.216273    0.343954
      6          1           0        1.642908   -1.822411    0.239173
      7          9           0        0.570470    1.326456   -0.112207
      8          1           0       -0.894703   -1.610301   -0.692477
      9          1           0       -1.900495    0.963058    0.677824
     10          1           0       -2.910517   -0.485012    0.116686
 ---------------------------------------------------------------------

 The electronic state is 1-A.
 Alpha  occ. eigenvalues --  -24.83087 -10.40280 -10.32944 -10.31557 -10.31016
 Alpha  occ. eigenvalues --   -1.31076  -0.92771  -0.86430  -0.73178  -0.66410
 Alpha  occ. eigenvalues --   -0.60223  -0.58525  -0.55074  -0.52768  -0.50537
 Alpha  occ. eigenvalues --   -0.48342  -0.45534  -0.40443  -0.33109
 Alpha virt. eigenvalues --    0.02080   0.06800   0.08152   0.09545   0.10246
 Alpha virt. eigenvalues --    0.11530   0.12082   0.13024   0.14000   0.14760
 Alpha virt. eigenvalues --    0.15963   0.16798   0.18411   0.19442   0.20206

 Mulliken charges:
               1
     1  C   -0.423369
     2  C    0.178145
     3  C   -0.102619
     4  C   -0.403750
     5  H    0.219790
     6  H    0.207710
     7  F   -0.313731
     8  H    0.219280
     9  H    0.220738
    10  H    0.197807
 Sum of Mulliken charges =   0.00000

 Dipole moment (field-independent basis, Debye):
    X=             -0.5511    Y=             -2.1092    Z=              0.2575  Tot=              2.1952
 Quadrupole moment (field-independent basis, Debye-Ang):
   XX=            -25.1921   YY=            -30.0345   ZZ=            -31.9617
   XY=             -1.2858   XZ=              0.2555   YZ=              1.4661

 Normal termination of Gaussian 09 at Wed May 12 11:56:26 2021.
