 Gaussian 09, Revision D.01,
 Gaussian 09:  ES64L-G09RevD.01 24-Apr-2013

 -----------------------------
 #p wB97XD/6-31+G Opt=ModRedun
 -----------------------------

 -----
 N.pdb
 -----
 Symbolic Z-matrix:
 Charge =  0 Multiplicity = 1

 SCF Done:  E(RwB97XD) =  -529.927354895     A.U. after   14 cycles
 SCF Done:  E(RwB97XD) =  -529.927354935     A.U. after    9 cycles
 Optimization completed.
    -- Stationary point found.

                         Standard orientation:
 ---------------------------------------------------------------------
 Center     Atomic      Atomic             Coordinates (Angstroms)
 Number     Number       Type             X           Y           Z
 ---------------------------------------------------------------------
      1          6           0        1.671490    1.269589   -0.000222
      2          6           0        1.556532   -0.226328   -0.000256
      3          1           0        1.184863    1.698300   -0.882325
      4          1           0        2.727879    1.539577    0.001668
      5          1           0        1.181668    1.698677    0.879924
      6          6           0        0.193995   -0.925660   -0.002661
      7          8           0        2.550626   -0.959498    0.000705
      8          6           0       -1.042347   -0.078715   -0.000034
      9          1           0        0.154243   -1.580120    0.873965
     10          1           0        0.154378   -1.573953   -0.883915
     11          9           0       -1.134138    0.745709    1.120191
     12          9           0       -2.185745   -0.869730   -0.002592
     13          9           0       -1.134124    0.752930   -1.114923
 ---------------------------------------------------------------------

 The electronic state is 1-A.
 Alpha  occ. eigenvalues --  -24.89305 -24.89301 -24.89114 -19.30114 -10.59542
 Alpha  occ. eigenvalues --  -10.44003 -10.36501 -10.31951  -1.44073  -1.35605
 Alpha  occ. eigenvalues --   -1.35518  -1.19410  -0.95221  -0.87217  -0.80299
 Alpha  occ. eigenvalues --   -0.71134  -0.70477  -0.69312  -0.64244  -0.59879
 Alpha  occ. eigenvalues --   -0.58450  -0.57729  -0.57115  -0.54986  -0.54191
 Alpha  occ. eigenvalues --   -0.53760  -0.53137  -0.52279  -0.50433  -0.49543
 Alpha  occ. eigenvalues --   -0.45824  -0.36951
 Alpha virt. eigenvalues --    0.01435   0.06206   0.08187   0.09666   0.10081
 Alpha virt. eigenvalues --    0.10564   0.11330   0.11374   0.12989   0.13352
 Alpha virt. eigenvalues --    0.13798   0.16258   0.16352   0.17629   0.17675

 Mulliken charges:
               1
     1  C   -0.853617
     2  C    0.537755
     3  H    0.261552
     4  H    0.251051
     5  H    0.261544
     6  C   -0.608294
     7  O   -0.400730
     8  C    0.561844
     9  H    0.299066
    10  H    0.299069
    11  F   -0.201422
    12  F   -0.206506
    13  F   -0.201311
 Sum of Mulliken charges =   0.00000

 Dipole moment (field-independent basis, Debye):
    X=             -0.0123    Y=              0.5466    Z=             -0.0093  Tot=              0.5468
 Quadrupole moment (field-independent basis, Debye-Ang):
   XX=            -58.3620   YY=            -44.8719   ZZ=            -45.5016
   XY=              6.3112   XZ=             -0.0073   YZ=              0.0077

 Normal termination of Gaussian 09 at Wed May 26 09:20:59 2021.
