 Gaussian 09, Revision D.01,
 Gaussian 09:  ES64L-G09RevD.01 24-Apr-2013

 -----------------------------
 #p wB97XD/6-31+G Opt=ModRedun
 -----------------------------

 -----
 L.pdb
 -----
 Symbolic Z-matrix:
 Charge =  0 Multiplicity = 1

 SCF Done:  E(RwB97XD) =  -191.782472056     A.U. after   14 cycles
 SCF Done:  E(RwB97XD) =  -191.782565933     A.U. after   12 cycles
 SCF Done:  E(RwB97XD) =  -191.782560267     A.U. after   11 cycles
 SCF Done:  E(RwB97XD) =  -191.782571028     A.U. after   11 cycles
 Optimization completed.
    -- Stationary point found.

                         Standard orientation:
 ---------------------------------------------------------------------
 Center     Atomic      Atomic             Coordinates (Angstroms)
 Number     Number       Type             X           Y           Z
 ---------------------------------------------------------------------
      1          6           0        1.664621   -0.317033   -0.083143
      2          6           0        0.614127    0.502184    0.014323
      3          6           0       -0.743846    0.040347    0.420750
      4          8           0       -1.651318   -0.181060   -0.384470
      5          1           0       -0.918639   -0.123603    1.496381
      6          1           0        2.627341    0.040827   -0.431951
      7          1           0        1.598482   -1.371260    0.171916
      8          1           0        0.693952    1.549531   -0.272166
 ---------------------------------------------------------------------

 The electronic state is 1-A.
 Alpha  occ. eigenvalues --  -19.29753 -10.41318 -10.33148 -10.32511  -1.18057
 Alpha  occ. eigenvalues --   -0.91076  -0.76154  -0.67118  -0.59765  -0.56612
 Alpha  occ. eigenvalues --   -0.53842  -0.49015  -0.46929  -0.37798  -0.35528
 Alpha virt. eigenvalues --    0.01059   0.05119   0.07578   0.08596   0.09102
 Alpha virt. eigenvalues --    0.11025   0.12472   0.13239   0.14715   0.16678
 Alpha virt. eigenvalues --    0.17109   0.17781   0.19433   0.22506   0.27696

 Mulliken charges:
               1
     1  C   -0.344906
     2  C   -0.132339
     3  C    0.013826
     4  O   -0.366884
     5  H    0.186950
     6  H    0.204198
     7  H    0.203208
     8  H    0.235946
 Sum of Mulliken charges =   0.00000

 Dipole moment (field-independent basis, Debye):
    X=              2.6449    Y=              0.5454    Z=              1.6056  Tot=              3.1418
 Quadrupole moment (field-independent basis, Debye-Ang):
   XX=            -27.2244   YY=            -21.9510   ZZ=            -25.2074
   XY=             -1.2201   XZ=             -3.4414   YZ=             -0.9717

 Normal termination of Gaussian 09 at Wed May 12 11:58:33 2021.
