 Gaussian 09, Revision D.01,
 Gaussian 09:  ES64L-G09RevD.01 24-Apr-2013

 -----------------------------
 #p wB97XD/6-31+G Opt=ModRedun
 -----------------------------

 -----
 B.pdb
 -----
 Symbolic Z-matrix:
 Charge =  0 Multiplicity = 1

 SCF Done:  E(RwB97XD) =  -255.098262935     A.U. after   13 cycles
 SCF Done:  E(RwB97XD) =  -255.098427513     A.U. after   11 cycles
 SCF Done:  E(RwB97XD) =  -255.098445967     A.U. after   11 cycles
 SCF Done:  E(RwB97XD) =  -255.098449451     A.U. after   10 cycles
 Optimization completed.
    -- Stationary point found.

                         Standard orientation:
 ---------------------------------------------------------------------
 Center     Atomic      Atomic             Coordinates (Angstroms)
 Number     Number       Type             X           Y           Z
 ---------------------------------------------------------------------
      1          6           0        0.908844    1.307487    0.092882
      2          6           0        0.466484    0.053841    0.051683
      3          6           0       -0.879120   -0.484634    0.262484
      4          6           0       -1.993832    0.102156   -0.190198
      5          1           0        1.950496    1.540137   -0.086392
      6          1           0        0.225723    2.116755    0.317104
      7          9           0        1.407602   -0.977363   -0.173835
      8          1           0       -0.925412   -1.428119    0.799861
      9          1           0       -1.961915    1.017071   -0.774807
     10          1           0       -2.971558   -0.322689    0.007641
 ---------------------------------------------------------------------

 The electronic state is 1-A.
 Alpha  occ. eigenvalues --  -24.83037 -10.40267 -10.33130 -10.32039 -10.31041
 Alpha  occ. eigenvalues --   -1.31005  -0.93177  -0.85918  -0.74453  -0.65210
 Alpha  occ. eigenvalues --   -0.61413  -0.57858  -0.55512  -0.52947  -0.50640
 Alpha  occ. eigenvalues --   -0.48494  -0.45537  -0.40291  -0.33602
 Alpha virt. eigenvalues --    0.01950   0.07340   0.08214   0.08781   0.10172
 Alpha virt. eigenvalues --    0.11271   0.12187   0.13239   0.14195   0.15204
 Alpha virt. eigenvalues --    0.16667   0.17610   0.18246   0.19027   0.20376

 Mulliken charges:
               1
     1  C   -0.420021
     2  C    0.089792
     3  C   -0.007141
     4  C   -0.422449
     5  H    0.218377
     6  H    0.207553
     7  F   -0.296844
     8  H    0.229773
     9  H    0.201257
    10  H    0.199704
 Sum of Mulliken charges =   0.00000

 Dipole moment (field-independent basis, Debye):
    X=             -1.8620    Y=              1.4900    Z=              0.3638  Tot=              2.4123
 Quadrupole moment (field-independent basis, Debye-Ang):
   XX=            -28.4377   YY=            -28.4753   ZZ=            -31.7019
   XY=              2.9548   XZ=              0.2339   YZ=             -1.6614

 Normal termination of Gaussian 09 at Wed May 12 11:56:23 2021.
