 Gaussian 09, Revision D.01,
 Gaussian 09:  ES64L-G09RevD.01 24-Apr-2013

 -----------------------------
 #p wB97XD/6-31+G Opt=ModRedun
 -----------------------------

 -----
 L.pdb
 -----
 Symbolic Z-matrix:
 Charge =  0 Multiplicity = 1

 SCF Done:  E(RwB97XD) =  -191.789951772     A.U. after   14 cycles
 SCF Done:  E(RwB97XD) =  -191.790070362     A.U. after   12 cycles
 SCF Done:  E(RwB97XD) =  -191.790056945     A.U. after   12 cycles
 SCF Done:  E(RwB97XD) =  -191.790076682     A.U. after   12 cycles
 Optimization completed.
    -- Stationary point found.

                         Standard orientation:
 ---------------------------------------------------------------------
 Center     Atomic      Atomic             Coordinates (Angstroms)
 Number     Number       Type             X           Y           Z
 ---------------------------------------------------------------------
      1          6           0        1.508795   -0.450335    0.066989
      2          6           0        0.657484    0.565476   -0.125721
      3          6           0       -0.789468    0.441799    0.143054
      4          8           0       -1.465951   -0.558337   -0.125038
      5          1           0       -1.276864    1.327343    0.580150
      6          1           0        2.577446   -0.333429   -0.077095
      7          1           0        1.148988   -1.428926    0.372157
      8          1           0        1.017167    1.560071   -0.380838
 ---------------------------------------------------------------------

 The electronic state is 1-A.
 Alpha  occ. eigenvalues --  -19.28899 -10.40626 -10.33099 -10.32961  -1.17160
 Alpha  occ. eigenvalues --   -0.91100  -0.76946  -0.65393  -0.61427  -0.54637
 Alpha  occ. eigenvalues --   -0.53374  -0.48717  -0.47702  -0.37802  -0.35224
 Alpha virt. eigenvalues --   -0.00667   0.06703   0.08017   0.08804   0.10036
 Alpha virt. eigenvalues --    0.11423   0.12564   0.13406   0.14856   0.16235
 Alpha virt. eigenvalues --    0.17575   0.17687   0.20104   0.22356   0.26527

 Mulliken charges:
               1
     1  C   -0.455797
     2  C   -0.032438
     3  C    0.078159
     4  O   -0.419816
     5  H    0.179018
     6  H    0.204707
     7  H    0.227596
     8  H    0.218571
 Sum of Mulliken charges =   0.00000

 Dipole moment (field-independent basis, Debye):
    X=              2.5619    Y=              1.9834    Z=              0.6210  Tot=              3.2989
 Quadrupole moment (field-independent basis, Debye-Ang):
   XX=            -25.2501   YY=            -22.5479   ZZ=            -25.1339
   XY=             -3.5466   XZ=             -1.0408   YZ=             -0.9569

 Normal termination of Gaussian 09 at Wed May 12 11:58:34 2021.
