 Gaussian 09, Revision D.01,
 Gaussian 09:  ES64L-G09RevD.01 24-Apr-2013

 -----------------------------
 #p wB97XD/6-31+G Opt=ModRedun
 -----------------------------

 -----
 N.pdb
 -----
 Symbolic Z-matrix:
 Charge =  0 Multiplicity = 1

 SCF Done:  E(RwB97XD) =  -529.927878072     A.U. after   15 cycles

 The electronic state is 1-A.
 Alpha  occ. eigenvalues --  -24.89232 -24.89230 -24.89100 -19.30330 -10.59572
 Alpha  occ. eigenvalues --  -10.43936 -10.36390 -10.32080  -1.44030  -1.35545
 Alpha  occ. eigenvalues --   -1.35481  -1.19499  -0.95307  -0.87265  -0.80190
 Alpha  occ. eigenvalues --   -0.71094  -0.70399  -0.69269  -0.64276  -0.59745
 Alpha  occ. eigenvalues --   -0.58493  -0.57686  -0.56975  -0.55315  -0.54261
 Alpha  occ. eigenvalues --   -0.53755  -0.52712  -0.52086  -0.50492  -0.49621
 Alpha  occ. eigenvalues --   -0.46247  -0.36995
 Alpha virt. eigenvalues --    0.01292   0.06209   0.08071   0.09338   0.10117
 Alpha virt. eigenvalues --    0.10712   0.11169   0.11917   0.12760   0.13446
 Alpha virt. eigenvalues --    0.13643   0.15879   0.16769   0.17169   0.17754

 Mulliken charges:
               1
     1  C   -0.721931
     2  C    0.440520
     3  H    0.260578
     4  H    0.250637
     5  H    0.248510
     6  C   -0.516155
     7  O   -0.403025
     8  C    0.442442
     9  H    0.290785
    10  H    0.295613
    11  F   -0.192898
    12  F   -0.204791
    13  F   -0.190285
 Sum of Mulliken charges =   0.00000

 Dipole moment (field-independent basis, Debye):
    X=             -0.1974    Y=              1.0118    Z=             -1.6196  Tot=              1.9199
 Quadrupole moment (field-independent basis, Debye-Ang):
   XX=            -56.7685   YY=            -45.9638   ZZ=            -44.9532
   XY=             -6.5573   XZ=              1.2483   YZ=              1.4248

 Optimization completed.
    -- Stationary point found.

                         Standard orientation:
 ---------------------------------------------------------------------
 Center     Atomic      Atomic             Coordinates (Angstroms)
 Number     Number       Type             X           Y           Z
 ---------------------------------------------------------------------
      1          6           0       -1.738976    1.258277   -0.033930
      2          6           0       -1.531864   -0.226964   -0.095502
      3          1           0       -1.140630    1.697438    0.771954
      4          1           0       -2.793649    1.464281    0.150726
      5          1           0       -1.422066    1.736860   -0.966169
      6          6           0       -0.174028   -0.786370   -0.522654
      7          8           0       -2.440412   -1.030297    0.133668
      8          6           0        1.036303   -0.066522   -0.004424
      9          1           0       -0.119597   -0.777802   -1.617648
     10          1           0       -0.121937   -1.826285   -0.193211
     11          9           0        1.197863    1.202396   -0.560947
     12          9           0        2.200386   -0.769742   -0.290539
     13          9           0        0.998702    0.109274    1.376380
 ---------------------------------------------------------------------

 Normal termination of Gaussian 09 at Wed May 26 09:20:56 2021.
