 Gaussian 09, Revision D.01,
 Gaussian 09:  ES64L-G09RevD.01 24-Apr-2013

 -----------------------------
 #p wB97XD/6-31+G Opt=ModRedun
 -----------------------------

 -----
 O.pdb
 -----
 Symbolic Z-matrix:
 Charge =  0 Multiplicity = 1

 SCF Done:  E(RwB97XD) =  -268.201646717     A.U. after   14 cycles

 The electronic state is 1-A.
 Alpha  occ. eigenvalues --  -19.31154 -19.28183 -10.45374 -10.36855 -10.31925
 Alpha  occ. eigenvalues --   -1.21536  -1.13952  -0.87245  -0.83184  -0.66890
 Alpha  occ. eigenvalues --   -0.60140  -0.58627  -0.57545  -0.53758  -0.52032
 Alpha  occ. eigenvalues --   -0.50911  -0.47506  -0.42566  -0.38515  -0.36502
 Alpha virt. eigenvalues --    0.04456   0.06441   0.07720   0.09466   0.09631
 Alpha virt. eigenvalues --    0.11813   0.12515   0.12886   0.14570   0.14798
 Alpha virt. eigenvalues --    0.16351   0.17128   0.19316   0.21719   0.23894

 Mulliken charges:
               1
     1  C   -0.660865
     2  C    0.380465
     3  H    0.227660
     4  H    0.251381
     5  H    0.251656
     6  O   -0.311756
     7  O   -0.381361
     8  C   -0.401529
     9  H    0.194879
    10  H    0.233686
    11  H    0.215784
 Sum of Mulliken charges =   0.00000

 Dipole moment (field-independent basis, Debye):
    X=              2.4183    Y=              3.9940    Z=              0.8854  Tot=              4.7523
 Quadrupole moment (field-independent basis, Debye-Ang):
   XX=            -28.8540   YY=            -33.1315   ZZ=            -30.5296
   XY=             -3.3110   XZ=              2.2136   YZ=             -0.3299

 Optimization completed.
    -- Stationary point found.

                         Standard orientation:
 ---------------------------------------------------------------------
 Center     Atomic      Atomic             Coordinates (Angstroms)
 Number     Number       Type             X           Y           Z
 ---------------------------------------------------------------------
      1          6           0       -0.956576    1.268341   -0.019007
      2          6           0       -0.577784   -0.188876   -0.032401
      3          1           0       -0.414817    1.815759    0.760166
      4          1           0       -2.025611    1.360575    0.170466
      5          1           0       -0.708926    1.722214   -0.982896
      6          8           0        0.707211   -0.471671   -0.470818
      7          8           0       -1.352953   -1.106161    0.194475
      8          6           0        1.849503    0.097761    0.233225
      9          1           0        1.865462    1.189708    0.153411
     10          1           0        2.722971   -0.318179   -0.263283
     11          1           0        1.835999   -0.210779    1.281976
 ---------------------------------------------------------------------

 Normal termination of Gaussian 09 at Wed May 26 09:01:20 2021.
