 Gaussian 09, Revision D.01,
 Gaussian 09:  ES64L-G09RevD.01 24-Apr-2013

 -----------------------------
 #p wB97XD/6-31+G Opt=ModRedun
 -----------------------------

 -----
 L.pdb
 -----
 Symbolic Z-matrix:
 Charge =  0 Multiplicity = 1

 SCF Done:  E(RwB97XD) =  -191.794368073     A.U. after   13 cycles
 SCF Done:  E(RwB97XD) =  -191.794490141     A.U. after   12 cycles
 SCF Done:  E(RwB97XD) =  -191.794481650     A.U. after   11 cycles
 SCF Done:  E(RwB97XD) =  -191.794499215     A.U. after   11 cycles
 SCF Done:  E(RwB97XD) =  -191.794499544     A.U. after   10 cycles
 Optimization completed.
    -- Stationary point found.

                         Standard orientation:
 ---------------------------------------------------------------------
 Center     Atomic      Atomic             Coordinates (Angstroms)
 Number     Number       Type             X           Y           Z
 ---------------------------------------------------------------------
      1          6           0        1.759657    0.140975   -0.071275
      2          6           0        0.565496   -0.442563    0.097830
      3          6           0       -0.672547    0.352314    0.098494
      4          8           0       -1.793563   -0.126217   -0.107240
      5          1           0       -0.551908    1.439377    0.245464
      6          1           0        2.676050   -0.434367   -0.141852
      7          1           0        1.856553    1.221993   -0.147706
      8          1           0        0.452177   -1.521619    0.151721
 ---------------------------------------------------------------------

 The electronic state is 1-A.
 Alpha  occ. eigenvalues --  -19.28895 -10.40657 -10.33909 -10.33291  -1.17226
 Alpha  occ. eigenvalues --   -0.92047  -0.75970  -0.68235  -0.58464  -0.57581
 Alpha  occ. eigenvalues --   -0.51689  -0.49654  -0.48677  -0.38192  -0.35375
 Alpha virt. eigenvalues --   -0.01144   0.06958   0.08126   0.08704   0.09222
 Alpha virt. eigenvalues --    0.11825   0.12644   0.12742   0.14822   0.15596
 Alpha virt. eigenvalues --    0.17659   0.18523   0.20187   0.22291   0.26326

 Mulliken charges:
               1
     1  C   -0.465893
     2  C    0.041492
     3  C    0.016424
     4  O   -0.427774
     5  H    0.180736
     6  H    0.211565
     7  H    0.205226
     8  H    0.238223
 Sum of Mulliken charges =   0.00000

 Dipole moment (field-independent basis, Debye):
    X=              3.6545    Y=              0.8678    Z=              0.3323  Tot=              3.7708
 Quadrupole moment (field-independent basis, Debye-Ang):
   XX=            -28.1174   YY=            -21.6566   ZZ=            -25.3683
   XY=             -1.1949   XZ=             -1.1354   YZ=             -0.1776

 Normal termination of Gaussian 09 at Wed May 12 11:58:35 2021.
