 Gaussian 09, Revision D.01,
 Gaussian 09:  ES64L-G09RevD.01 24-Apr-2013

 -----------------------------
 #p wB97XD/6-31+G Opt=ModRedun
 -----------------------------

 -----
 O.pdb
 -----
 Symbolic Z-matrix:
 Charge =  0 Multiplicity = 1

 SCF Done:  E(RwB97XD) =  -268.219433749     A.U. after   14 cycles

 The electronic state is 1-A.
 Alpha  occ. eigenvalues --  -19.32465 -19.27655 -10.45043 -10.35641 -10.31071
 Alpha  occ. eigenvalues --   -1.22365  -1.13512  -0.88087  -0.81419  -0.66542
 Alpha  occ. eigenvalues --   -0.59625  -0.58576  -0.56878  -0.52941  -0.51651
 Alpha  occ. eigenvalues --   -0.49557  -0.46280  -0.44208  -0.39057  -0.36739
 Alpha virt. eigenvalues --    0.05979   0.07222   0.08050   0.10088   0.10214
 Alpha virt. eigenvalues --    0.11176   0.12783   0.13203   0.15375   0.15848
 Alpha virt. eigenvalues --    0.16566   0.19808   0.20696   0.22691   0.24751

 Mulliken charges:
               1
     1  C   -0.709098
     2  C    0.413531
     3  H    0.244486
     4  H    0.241017
     5  H    0.241125
     6  O   -0.292974
     7  O   -0.447309
     8  C   -0.354368
     9  H    0.216018
    10  H    0.219412
    11  H    0.228161
 Sum of Mulliken charges =   0.00000

 Dipole moment (field-independent basis, Debye):
    X=             -0.4875    Y=             -1.9730    Z=              0.5987  Tot=              2.1187
 Quadrupole moment (field-independent basis, Debye-Ang):
   XX=            -23.1206   YY=            -36.6857   ZZ=            -29.6198
   XY=             -2.0785   XZ=             -0.3891   YZ=             -0.5501

 Optimization completed.
    -- Stationary point found.

                         Standard orientation:
 ---------------------------------------------------------------------
 Center     Atomic      Atomic             Coordinates (Angstroms)
 Number     Number       Type             X           Y           Z
 ---------------------------------------------------------------------
      1          6           0        1.782306   -0.560598    0.083436
      2          6           0        0.486932    0.172462   -0.074462
      3          1           0        1.845395   -0.945089    1.106818
      4          1           0        2.615047    0.119561   -0.095076
      5          1           0        1.833941   -1.413251   -0.596738
      6          8           0       -0.571927   -0.687017   -0.189058
      7          8           0        0.340814    1.393882   -0.021701
      8          6           0       -1.901593   -0.157873    0.111588
      9          1           0       -1.901824    0.292312    1.106345
     10          1           0       -2.559828   -1.022121    0.070472
     11          1           0       -2.189692    0.589722   -0.629121
 ---------------------------------------------------------------------

 Normal termination of Gaussian 09 at Wed May 26 09:01:20 2021.
