 Gaussian 09, Revision D.01,
 Gaussian 09:  ES64L-G09RevD.01 24-Apr-2013

 -----------------------------
 #p wB97XD/6-31+G Opt=ModRedun
 -----------------------------

 -----
 B.pdb
 -----
 Symbolic Z-matrix:
 Charge =  0 Multiplicity = 1

 SCF Done:  E(RwB97XD) =  -255.100702514     A.U. after   13 cycles
 SCF Done:  E(RwB97XD) =  -255.100861081     A.U. after   11 cycles
 SCF Done:  E(RwB97XD) =  -255.100875912     A.U. after   11 cycles
 SCF Done:  E(RwB97XD) =  -255.100878174     A.U. after    9 cycles
 Optimization completed.
    -- Stationary point found.

                         Standard orientation:
 ---------------------------------------------------------------------
 Center     Atomic      Atomic             Coordinates (Angstroms)
 Number     Number       Type             X           Y           Z
 ---------------------------------------------------------------------
      1          6           0        1.699846   -0.682413    0.096206
      2          6           0        0.522100   -0.078808   -0.051499
      3          6           0       -0.805569   -0.682665   -0.123691
      4          6           0       -1.950803   -0.028780    0.107137
      5          1           0        2.616982   -0.114713    0.181606
      6          1           0        1.756735   -1.763505    0.124872
      7          9           0        0.501314    1.330754   -0.060838
      8          1           0       -0.808439   -1.751675   -0.321000
      9          1           0       -1.967477    1.034893    0.318473
     10          1           0       -2.903066   -0.545792    0.074670
 ---------------------------------------------------------------------

 The electronic state is 1-A.
 Alpha  occ. eigenvalues --  -24.83264 -10.40345 -10.32906 -10.31399 -10.31152
 Alpha  occ. eigenvalues --   -1.31340  -0.92826  -0.86508  -0.73184  -0.66577
 Alpha  occ. eigenvalues --   -0.60331  -0.58684  -0.54623  -0.53299  -0.50396
 Alpha  occ. eigenvalues --   -0.48208  -0.45748  -0.41061  -0.32843
 Alpha virt. eigenvalues --    0.01826   0.06792   0.08069   0.09819   0.10379
 Alpha virt. eigenvalues --    0.11441   0.12120   0.12886   0.14301   0.15169
 Alpha virt. eigenvalues --    0.16209   0.16567   0.18855   0.19817   0.20147

 Mulliken charges:
               1
     1  C   -0.391826
     2  C    0.146465
     3  C   -0.048186
     4  C   -0.449369
     5  H    0.220582
     6  H    0.207368
     7  F   -0.322476
     8  H    0.216362
     9  H    0.223621
    10  H    0.197459
 Sum of Mulliken charges =   0.00000

 Dipole moment (field-independent basis, Debye):
    X=             -0.3783    Y=             -2.0816    Z=              0.1543  Tot=              2.1213
 Quadrupole moment (field-independent basis, Debye-Ang):
   XX=            -24.9600   YY=            -29.5213   ZZ=            -32.6600
   XY=             -1.2811   XZ=              0.0966   YZ=              0.7431

 Normal termination of Gaussian 09 at Wed May 12 11:56:27 2021.
