 Gaussian 09, Revision D.01,
 Gaussian 09:  ES64L-G09RevD.01 24-Apr-2013

 -----------------------------
 #p wB97XD/6-31+G Opt=ModRedun
 -----------------------------

 -----
 O.pdb
 -----
 Symbolic Z-matrix:
 Charge =  0 Multiplicity = 1

 SCF Done:  E(RwB97XD) =  -268.201010215     A.U. after   14 cycles

 The electronic state is 1-A.
 Alpha  occ. eigenvalues --  -19.30414 -19.28788 -10.45558 -10.36439 -10.31581
 Alpha  occ. eigenvalues --   -1.21571  -1.13644  -0.87608  -0.82088  -0.66498
 Alpha  occ. eigenvalues --   -0.59703  -0.58331  -0.57230  -0.53041  -0.52606
 Alpha  occ. eigenvalues --   -0.50713  -0.47081  -0.43029  -0.37933  -0.36725
 Alpha virt. eigenvalues --    0.03942   0.06706   0.08004   0.09940   0.10409
 Alpha virt. eigenvalues --    0.10948   0.12454   0.13103   0.14729   0.15087
 Alpha virt. eigenvalues --    0.16517   0.17314   0.19745   0.22858   0.24222

 Mulliken charges:
               1
     1  C   -0.630442
     2  C    0.353886
     3  H    0.253441
     4  H    0.240620
     5  H    0.226925
     6  O   -0.312327
     7  O   -0.388260
     8  C   -0.390893
     9  H    0.223176
    10  H    0.228013
    11  H    0.195861
 Sum of Mulliken charges =   0.00000

 Dipole moment (field-independent basis, Debye):
    X=              1.0291    Y=             -3.0806    Z=              1.4536  Tot=              3.5584
 Quadrupole moment (field-independent basis, Debye-Ang):
   XX=            -25.6300   YY=            -34.2527   ZZ=            -31.1871
   XY=              3.1466   XZ=              2.3316   YZ=             -0.8651

 Optimization completed.
    -- Stationary point found.

                         Standard orientation:
 ---------------------------------------------------------------------
 Center     Atomic      Atomic             Coordinates (Angstroms)
 Number     Number       Type             X           Y           Z
 ---------------------------------------------------------------------
      1          6           0       -1.420841   -0.966467    0.128650
      2          6           0       -0.531035    0.214999   -0.109692
      3          1           0       -1.547083   -1.530011   -0.800467
      4          1           0       -2.391006   -0.641349    0.503622
      5          1           0       -0.948839   -1.637963    0.854245
      6          8           0        0.716706   -0.133788   -0.622729
      7          8           0       -0.820811    1.381390    0.118425
      8          6           0        1.843232   -0.179285    0.304772
      9          1           0        1.965144    0.787739    0.800104
     10          1           0        2.713435   -0.400476   -0.308541
     11          1           0        1.693046   -0.974235    1.043088
 ---------------------------------------------------------------------

 Normal termination of Gaussian 09 at Wed May 26 09:01:17 2021.
