 Gaussian 09, Revision D.01,
 Gaussian 09:  ES64L-G09RevD.01 24-Apr-2013

 -----------------------------
 #p wB97XD/6-31+G Opt=ModRedun
 -----------------------------

 -----
 O.pdb
 -----
 Symbolic Z-matrix:
 Charge =  0 Multiplicity = 1

 SCF Done:  E(RwB97XD) =  -268.199549209     A.U. after   14 cycles

 The electronic state is 1-A.
 Alpha  occ. eigenvalues --  -19.30581 -19.28663 -10.45538 -10.36712 -10.31775
 Alpha  occ. eigenvalues --   -1.21492  -1.13825  -0.87412  -0.82639  -0.66700
 Alpha  occ. eigenvalues --   -0.59918  -0.58400  -0.57501  -0.53477  -0.52279
 Alpha  occ. eigenvalues --   -0.50927  -0.47399  -0.42641  -0.38197  -0.36607
 Alpha virt. eigenvalues --    0.04018   0.06558   0.07822   0.09722   0.09911
 Alpha virt. eigenvalues --    0.11430   0.12460   0.12985   0.14681   0.14802
 Alpha virt. eigenvalues --    0.16255   0.17145   0.19523   0.22644   0.23580

 Mulliken charges:
               1
     1  C   -0.624951
     2  C    0.348175
     3  H    0.214907
     4  H    0.243860
     5  H    0.257149
     6  O   -0.313522
     7  O   -0.369499
     8  C   -0.393257
     9  H    0.187436
    10  H    0.230863
    11  H    0.218839
 Sum of Mulliken charges =   0.00000

 Dipole moment (field-independent basis, Debye):
    X=             -1.6995    Y=              3.6644    Z=             -1.1722  Tot=              4.2060
 Quadrupole moment (field-independent basis, Debye-Ang):
   XX=            -27.3311   YY=            -33.4579   ZZ=            -31.0472
   XY=              3.3071   XZ=              2.5624   YZ=             -0.0424

 Optimization completed.
    -- Stationary point found.

                         Standard orientation:
 ---------------------------------------------------------------------
 Center     Atomic      Atomic             Coordinates (Angstroms)
 Number     Number       Type             X           Y           Z
 ---------------------------------------------------------------------
      1          6           0        1.176872    1.157108   -0.042660
      2          6           0        0.555157   -0.206120    0.060071
      3          1           0        0.534068    1.845246   -0.600167
      4          1           0        2.149175    1.088885   -0.529855
      5          1           0        1.299634    1.567479    0.964972
      6          8           0       -0.735066   -0.213117    0.585864
      7          8           0        1.126850   -1.256653   -0.189511
      8          6           0       -1.850961    0.145238   -0.281195
      9          1           0       -1.734491    1.159535   -0.678522
     10          1           0       -2.733167    0.097027    0.352753
     11          1           0       -1.935904   -0.577369   -1.097298
 ---------------------------------------------------------------------

 Normal termination of Gaussian 09 at Wed May 26 09:01:20 2021.
